 Gaussian 16, Revision C.01,
 Gaussian 16:  ES64L-G16RevC.01  3-Jul-2019

 ----------------------------------------------------------------------
 # B3LYP/6-31G* empiricaldispersion=gd3 guess=read geom=check nosymm in
 tegral(ultrafinegrid)
 ----------------------------------------------------------------------

 ------------------------------------------------------
 Candidate Structure: Conf:962 Charge calc in gas phase
 ------------------------------------------------------
 Structure from the checkpoint file:  "conf-962.chk"
 Charge =  1 Multiplicity = 1

                          Input orientation:
 ---------------------------------------------------------------------
 Center     Atomic      Atomic             Coordinates (Angstroms)
 Number     Number       Type             X           Y           Z
 ---------------------------------------------------------------------
      1          7           0       -2.698341   11.858947   -3.832789
      2          6           0       -2.429860   10.399335   -4.032711
      3          6           0       -0.986433   10.363289   -4.591633
      4          8           0       -0.217777   11.277384   -4.323559
      5          6           0       -3.510924    9.784431   -4.950626
      6          6           0       -4.910155   10.233140   -4.579306
      7          6           0       -5.466890    9.905133   -3.333482
      8          6           0       -5.639097   11.037534   -5.464600
      9          6           0       -6.731928   10.374071   -2.977184
     10          6           0       -6.906082   11.503322   -5.106686
     11          6           0       -7.453494   11.177222   -3.864953
     12          1           0       -3.597787   12.010364   -3.372212
     13          1           0       -2.447704    9.918787   -3.047796
     14          1           0       -3.434828    8.691830   -4.863590
     15          1           0       -3.305832   10.060804   -5.988700
     16          1           0       -4.915639    9.267717   -2.643885
     17          1           0       -5.216768   11.280213   -6.434747
     18          1           0       -7.156779   10.106516   -2.013762
     19          1           0       -7.464448   12.122514   -5.803155
     20          1           0       -8.439896   11.539790   -3.589748
     21          1           0       -1.923135   12.270506   -3.305304
     22          7           0       -0.669866    9.299001   -5.373918
     23          6           0        0.454346    9.335297   -6.318297
     24          6           0       -0.024868    9.936037   -7.657957
     25          8           0        0.490638   10.932694   -8.148951
     26          6           0        1.080347    7.942323   -6.476175
     27          6           0        2.183328    7.853934   -7.549268
     28          6           0        3.300577    8.882335   -7.317357
     29          6           0        2.743835    6.425777   -7.596029
     30          1           0       -1.383444    8.600506   -5.528677
     31          1           0        1.174722   10.045913   -5.915262
     32          1           0        1.486265    7.645995   -5.500210
     33          1           0        0.289325    7.215615   -6.718925
     34          1           0        1.720775    8.068419   -8.523884
     35          1           0        2.936754    9.908816   -7.428247
     36          1           0        3.731800    8.771733   -6.313841
     37          1           0        4.108505    8.738982   -8.042963
     38          1           0        3.236062    6.168734   -6.649539
     39          1           0        1.953719    5.686329   -7.775139
     40          1           0        3.486225    6.324486   -8.394883
     41          7           0       -1.052002    9.264377   -8.267842
     42          6           0       -1.769989    9.859142   -9.394636
     43          6           0       -2.704142   10.958489   -8.857396
     44          8           0       -3.801891   10.676250   -8.371494
     45          6           0       -2.583222    8.796631  -10.129705
     46          6           0       -3.251706    9.398541  -11.367823
     47          7           0       -3.799944    8.496355  -12.224320
     48          8           0       -3.292236   10.607862  -11.563040
     49          1           0       -1.551378    8.557122   -7.746329
     50          1           0       -1.025868   10.292970  -10.064530
     51          1           0       -1.938892    7.953318  -10.404258
     52          1           0       -3.373149    8.424540   -9.464325
     53          1           0       -4.284443    8.841429  -13.041290
     54          1           0       -3.774629    7.500888  -12.062562
     55          7           0       -2.217773   12.217052   -8.938457
     56          6           0       -2.997461   13.335047   -8.435411
     57          6           0       -3.210229   13.254952   -6.895283
     58          8           0       -4.117052   13.967805   -6.376814
     59          6           0       -4.325701   13.502261   -9.230877
     60          6           0       -4.466491   14.792052  -10.066469
     61          6           0       -4.149748   16.119358   -9.351082
     62          7           0       -4.640410   16.096272   -7.964821
     63          6           0       -4.413823   17.056601   -7.070439
     64          7           0       -4.253693   18.339643   -7.447162
     65          7           0       -4.328678   16.716537   -5.775536
     66          8           0       -2.416174   12.510775   -6.258962
     67          1           0       -2.680051   12.321861   -4.864103
     68          1           0       -1.214919   12.314201   -9.044994
     69          1           0       -2.365651   14.220287   -8.580881
     70          1           0       -5.168106   13.415179   -8.539085
     71          1           0       -4.418144   12.659399   -9.918870
     72          1           0       -3.810119   14.741497  -10.943005
     73          1           0       -5.493101   14.828234  -10.447981
     74          1           0       -3.067486   16.307627   -9.339792
     75          1           0       -4.615740   16.942717   -9.904843
     76          1           0       -4.672001   15.161549   -7.513975
     77          1           0       -4.007847   19.055883   -6.780498
     78          1           0       -4.508517   18.636796   -8.376903
     79          1           0       -4.426084   17.397065   -5.037356
     80          1           0       -4.250414   15.720591   -5.552480
 ---------------------------------------------------------------------

 SCF Done:  E(RB3LYP) =  -1866.73988058     A.U. after    3 cycles

 Alpha  occ. eigenvalues --  -19.21754 -19.20436 -19.20294 -19.20290 -19.19196
 Alpha  occ. eigenvalues --  -19.18820 -14.50823 -14.50291 -14.48688 -14.47349
 Alpha  occ. eigenvalues --  -14.46306 -14.45052 -14.43154 -14.43037 -10.45373
 Alpha  occ. eigenvalues --  -10.39232 -10.37814 -10.37185 -10.36757 -10.35950
 Alpha  occ. eigenvalues --  -10.35372 -10.33534 -10.31687 -10.31457 -10.31411
 Alpha  occ. eigenvalues --  -10.29357 -10.28159 -10.28145 -10.28053 -10.27274
 Alpha  occ. eigenvalues --  -10.26963 -10.26920 -10.26694 -10.26597 -10.26562
 Alpha  occ. eigenvalues --  -10.26297 -10.25924 -10.23585 -10.23121  -1.14336
 Alpha  occ. eigenvalues --   -1.14102  -1.13528  -1.12240  -1.10996  -1.10345
 Alpha  occ. eigenvalues --   -1.06604  -1.04664  -1.02981  -1.02980  -1.02214
 Alpha  occ. eigenvalues --   -1.00947  -0.99759  -0.97865  -0.93716  -0.89547
 Alpha  occ. eigenvalues --   -0.88741  -0.87784  -0.86435  -0.83383  -0.83013
 Alpha  occ. eigenvalues --   -0.82213  -0.80936  -0.78026  -0.76214  -0.75293
 Alpha  occ. eigenvalues --   -0.75014  -0.74411  -0.72616  -0.70987  -0.70147
 Alpha  occ. eigenvalues --   -0.69246  -0.68680  -0.68247  -0.67484  -0.66907
 Alpha  occ. eigenvalues --   -0.66425  -0.66089  -0.65887  -0.64458  -0.63362
 Alpha  occ. eigenvalues --   -0.62925  -0.62631  -0.62210  -0.61718  -0.60739
 Alpha  occ. eigenvalues --   -0.60035  -0.58997  -0.58359  -0.57723  -0.57482
 Alpha  occ. eigenvalues --   -0.57267  -0.56038  -0.55135  -0.55035  -0.54383
 Alpha  occ. eigenvalues --   -0.54235  -0.53644  -0.53083  -0.52739  -0.52469
 Alpha  occ. eigenvalues --   -0.51754  -0.51592  -0.51124  -0.50553  -0.50464
 Alpha  occ. eigenvalues --   -0.50020  -0.49831  -0.49439  -0.49192  -0.48874
 Alpha  occ. eigenvalues --   -0.48565  -0.47908  -0.47651  -0.47270  -0.46976
 Alpha  occ. eigenvalues --   -0.46336  -0.45733  -0.45542  -0.45373  -0.44888
 Alpha  occ. eigenvalues --   -0.44146  -0.43792  -0.43651  -0.43539  -0.43112
 Alpha  occ. eigenvalues --   -0.42900  -0.42425  -0.42085  -0.41541  -0.40887
 Alpha  occ. eigenvalues --   -0.39944  -0.39298  -0.39119  -0.37946  -0.37245
 Alpha  occ. eigenvalues --   -0.36575  -0.35998  -0.35801  -0.35587  -0.34587
 Alpha  occ. eigenvalues --   -0.34116  -0.32976  -0.32901  -0.32642  -0.32501
 Alpha  occ. eigenvalues --   -0.32143  -0.31535
 Alpha virt. eigenvalues --   -0.10064  -0.09380  -0.08123  -0.07973  -0.06635
 Alpha virt. eigenvalues --   -0.06355  -0.05398  -0.04927  -0.04586  -0.03982
 Alpha virt. eigenvalues --   -0.02696  -0.02022  -0.00311   0.00299   0.00516

 Mulliken charges:
               1
     1  N   -0.767900
     2  C   -0.107596
     3  C    0.672945
     4  O   -0.511768
     5  C   -0.408108
     6  C    0.107033
     7  C   -0.197045
     8  C   -0.182923
     9  C   -0.130842
    10  C   -0.133880
    11  C   -0.128898
    12  H    0.384091
    13  H    0.200838
    14  H    0.158516
    15  H    0.218593
    16  H    0.129349
    17  H    0.194359
    18  H    0.148693
    19  H    0.142290
    20  H    0.147023
    21  H    0.391928
    22  N   -0.622698
    23  C   -0.086690
    24  C    0.652870
    25  O   -0.519120
    26  C   -0.266855
    27  C   -0.082403
    28  C   -0.463891
    29  C   -0.445067
    30  H    0.329582
    31  H    0.217901
    32  H    0.161660
    33  H    0.116287
    34  H    0.138262
    35  H    0.171878
    36  H    0.144190
    37  H    0.155635
    38  H    0.149538
    39  H    0.139258
    40  H    0.157215
    41  N   -0.607459
    42  C   -0.046666
    43  C    0.677012
    44  O   -0.563019
    45  C   -0.406279
    46  C    0.635635
    47  N   -0.755786
    48  O   -0.511299
    49  H    0.317509
    50  H    0.191759
    51  H    0.172905
    52  H    0.189316
    53  H    0.354328
    54  H    0.345914
    55  N   -0.586546
    56  C   -0.053435
    57  C    0.660878
    58  O   -0.618883
    59  C   -0.317619
    60  C   -0.297495
    61  C   -0.163453
    62  N   -0.626439
    63  C    0.794915
    64  N   -0.757393
    65  N   -0.782745
    66  O   -0.601086
    67  H    0.454269
    68  H    0.362998
    69  H    0.157070
    70  H    0.170672
    71  H    0.215569
    72  H    0.174550
    73  H    0.167958
    74  H    0.173434
    75  H    0.163356
    76  H    0.414836
    77  H    0.373428
    78  H    0.381011
    79  H    0.360894
    80  H    0.411139
 Sum of Mulliken charges =   1.00000

 Dipole moment (field-independent basis, Debye):
    X=            -18.1630    Y=             63.7280    Z=            -31.4688  Tot=             73.3583
 Quadrupole moment (field-independent basis, Debye-Ang):
   XX=           -152.2869   YY=            757.6653   ZZ=             34.7055
   XY=           -269.2414   XZ=            118.4909   YZ=           -411.1270

 Normal termination of Gaussian 16 at Sat Jun 11 21:07:43 2022.
