 Gaussian 16, Revision C.01,
 Gaussian 16:  ES64L-G16RevC.01  3-Jul-2019

 ----------------------------------------------------------------------
 # B3LYP/6-31G* empiricaldispersion=gd3 guess=read geom=check nosymm in
 tegral(ultrafinegrid)
 ----------------------------------------------------------------------

 ------------------------------------------------------
 Candidate Structure: Conf:357 Charge calc in gas phase
 ------------------------------------------------------
 Structure from the checkpoint file:  "conf-357.chk"
 Charge =  1 Multiplicity = 1

                          Input orientation:
 ---------------------------------------------------------------------
 Center     Atomic      Atomic             Coordinates (Angstroms)
 Number     Number       Type             X           Y           Z
 ---------------------------------------------------------------------
      1          7           0       -2.594102   10.211088   -4.788221
      2          6           0       -1.206783   10.460069   -5.241492
      3          6           0       -1.089479   11.961697   -5.552217
      4          8           0       -2.018722   12.730928   -5.334145
      5          6           0       -0.865798    9.522747   -6.422961
      6          6           0       -0.901514    8.068963   -5.999062
      7          6           0        0.186566    7.500831   -5.321320
      8          6           0       -2.040757    7.283625   -6.226014
      9          6           0        0.142557    6.178442   -4.880875
     10          6           0       -2.086090    5.958846   -5.783056
     11          6           0       -0.997217    5.403188   -5.110043
     12          1           0       -2.793102   10.806139   -3.983871
     13          1           0       -0.501130   10.244225   -4.423642
     14          1           0        0.136124    9.772967   -6.791044
     15          1           0       -1.563965    9.719346   -7.239625
     16          1           0        1.080049    8.097388   -5.145365
     17          1           0       -2.883093    7.715456   -6.759173
     18          1           0        0.997716    5.751068   -4.364691
     19          1           0       -2.971456    5.357339   -5.972496
     20          1           0       -1.031664    4.371726   -4.770956
     21          1           0       -2.677192    9.235034   -4.501674
     22          7           0        0.110213   12.386793   -6.041389
     23          6           0        0.383966   13.815541   -6.223544
     24          6           0       -0.604571   14.464119   -7.211034
     25          8           0       -0.964551   15.622124   -7.076582
     26          6           0        1.830827   14.040612   -6.688173
     27          6           0        2.931928   13.546676   -5.727180
     28          6           0        4.311457   13.848025   -6.331058
     29          6           0        2.799948   14.158344   -4.325841
     30          1           0        0.877284   11.734422   -6.123246
     31          1           0        0.200699   14.339434   -5.281168
     32          1           0        1.963601   13.570583   -7.672858
     33          1           0        1.947477   15.120828   -6.839177
     34          1           0        2.852368   12.451368   -5.627056
     35          1           0        4.459906   14.930191   -6.433437
     36          1           0        5.112976   13.460051   -5.693108
     37          1           0        4.422747   13.398977   -7.325081
     38          1           0        3.627823   13.837667   -3.684138
     39          1           0        2.821990   15.254029   -4.377757
     40          1           0        1.866904   13.864783   -3.832174
     41          7           0       -0.999182   13.661460   -8.252531
     42          6           0       -2.305688   13.875460   -8.849352
     43          6           0       -3.048475   12.529342   -8.728118
     44          8           0       -2.433293   11.483717   -8.488407
     45          6           0       -2.207305   14.405415  -10.296215
     46          6           0       -3.475510   15.111914  -10.772222
     47          7           0       -3.314432   15.935230  -11.835549
     48          8           0       -4.582126   14.944699  -10.251393
     49          1           0       -0.775603   12.674592   -8.163320
     50          1           0       -2.830584   14.626042   -8.249771
     51          1           0       -1.365393   15.105223  -10.324296
     52          1           0       -1.965713   13.593587  -10.995027
     53          1           0       -4.116237   16.456603  -12.164231
     54          1           0       -2.405158   16.173415  -12.203165
     55          7           0       -4.387258   12.569353   -8.839443
     56          6           0       -5.212808   11.390567   -8.623512
     57          6           0       -4.538590   10.475509   -7.576314
     58          8           0       -4.315544    9.283993   -7.772226
     59          6           0       -5.596540   10.650539   -9.922871
     60          6           0       -7.010919   10.035194   -9.934960
     61          6           0       -7.244323    8.777939   -9.081896
     62          7           0       -7.074745    8.990676   -7.630086
     63          6           0       -7.832129    9.772671   -6.860011
     64          7           0       -9.136561    9.943543   -7.139733
     65          7           0       -7.291187   10.384512   -5.794343
     66          8           0       -4.431367   11.070154   -6.399064
     67          1           0       -3.664196   10.627928   -5.774126
     68          1           0       -4.798546   13.444745   -9.172830
     69          1           0       -6.126505   11.762835   -8.139079
     70          1           0       -4.838525    9.890581  -10.138248
     71          1           0       -5.558688   11.385668  -10.733575
     72          1           0       -7.745916   10.801556   -9.649889
     73          1           0       -7.254899    9.751898  -10.966268
     74          1           0       -8.239869    8.364380   -9.277019
     75          1           0       -6.523936    7.999063   -9.340620
     76          1           0       -6.120608    8.827844   -7.311471
     77          1           0       -9.690031   10.640756   -6.663924
     78          1           0       -9.618612    9.311255   -7.761725
     79          1           0       -7.877741   10.813704   -5.092484
     80          1           0       -6.291464   10.605902   -5.776621
 ---------------------------------------------------------------------

 SCF Done:  E(RB3LYP) =  -1866.73999500     A.U. after    2 cycles

 Alpha  occ. eigenvalues --  -19.25822 -19.23043 -19.20963 -19.20864 -19.20069
 Alpha  occ. eigenvalues --  -19.17855 -14.52385 -14.51171 -14.50557 -14.44828
 Alpha  occ. eigenvalues --  -14.44558 -14.44501 -14.44407 -14.41752 -10.48003
 Alpha  occ. eigenvalues --  -10.41653 -10.38353 -10.37508 -10.37202 -10.35325
 Alpha  occ. eigenvalues --  -10.34927 -10.33665 -10.32419 -10.31371 -10.30330
 Alpha  occ. eigenvalues --  -10.30304 -10.28642 -10.28458 -10.27287 -10.26945
 Alpha  occ. eigenvalues --  -10.26291 -10.26100 -10.26040 -10.25945 -10.25907
 Alpha  occ. eigenvalues --  -10.25740 -10.25593 -10.23712 -10.23605  -1.18253
 Alpha  occ. eigenvalues --   -1.16304  -1.12962  -1.12302  -1.12177  -1.09734
 Alpha  occ. eigenvalues --   -1.09488  -1.05435  -1.04589  -1.01599  -1.01046
 Alpha  occ. eigenvalues --   -1.00603  -0.99279  -0.98831  -0.92522  -0.90813
 Alpha  occ. eigenvalues --   -0.88412  -0.86894  -0.86027  -0.84965  -0.82426
 Alpha  occ. eigenvalues --   -0.81291  -0.80858  -0.79528  -0.77744  -0.75820
 Alpha  occ. eigenvalues --   -0.74675  -0.73731  -0.73475  -0.72850  -0.71695
 Alpha  occ. eigenvalues --   -0.69805  -0.68788  -0.67572  -0.67264  -0.67031
 Alpha  occ. eigenvalues --   -0.65838  -0.65635  -0.65115  -0.64902  -0.64302
 Alpha  occ. eigenvalues --   -0.63440  -0.63215  -0.62118  -0.61753  -0.60884
 Alpha  occ. eigenvalues --   -0.59813  -0.58835  -0.58387  -0.57652  -0.57377
 Alpha  occ. eigenvalues --   -0.57286  -0.56192  -0.55843  -0.55242  -0.54993
 Alpha  occ. eigenvalues --   -0.54351  -0.54059  -0.53385  -0.52882  -0.52351
 Alpha  occ. eigenvalues --   -0.52168  -0.52097  -0.51241  -0.50747  -0.50445
 Alpha  occ. eigenvalues --   -0.50371  -0.50214  -0.49422  -0.48863  -0.48571
 Alpha  occ. eigenvalues --   -0.48312  -0.47779  -0.47470  -0.47066  -0.46929
 Alpha  occ. eigenvalues --   -0.46454  -0.46194  -0.45553  -0.45200  -0.44914
 Alpha  occ. eigenvalues --   -0.44725  -0.44580  -0.44452  -0.43897  -0.43355
 Alpha  occ. eigenvalues --   -0.43169  -0.42624  -0.41938  -0.41203  -0.40928
 Alpha  occ. eigenvalues --   -0.40224  -0.39596  -0.39527  -0.39394  -0.39111
 Alpha  occ. eigenvalues --   -0.37623  -0.36763  -0.36024  -0.35374  -0.34926
 Alpha  occ. eigenvalues --   -0.34563  -0.34269  -0.33849  -0.32238  -0.32001
 Alpha  occ. eigenvalues --   -0.31351  -0.30898
 Alpha virt. eigenvalues --   -0.12835  -0.09802  -0.07993  -0.07813  -0.07180
 Alpha virt. eigenvalues --   -0.06845  -0.06240  -0.05494  -0.04704  -0.04234
 Alpha virt. eigenvalues --   -0.02048  -0.01821  -0.00601  -0.00307   0.00093

 Mulliken charges:
               1
     1  N   -0.796347
     2  C   -0.080631
     3  C    0.647133
     4  O   -0.520369
     5  C   -0.387230
     6  C    0.140979
     7  C   -0.179980
     8  C   -0.215398
     9  C   -0.127337
    10  C   -0.133970
    11  C   -0.127798
    12  H    0.351646
    13  H    0.168008
    14  H    0.146848
    15  H    0.224398
    16  H    0.122982
    17  H    0.168642
    18  H    0.145964
    19  H    0.133539
    20  H    0.145008
    21  H    0.348139
    22  N   -0.656420
    23  C   -0.018374
    24  C    0.605789
    25  O   -0.509541
    26  C   -0.303287
    27  C   -0.081435
    28  C   -0.442944
    29  C   -0.449772
    30  H    0.340012
    31  H    0.191054
    32  H    0.141913
    33  H    0.174803
    34  H    0.107651
    35  H    0.154108
    36  H    0.154651
    37  H    0.145138
    38  H    0.155450
    39  H    0.157537
    40  H    0.145228
    41  N   -0.610101
    42  C   -0.055845
    43  C    0.627571
    44  O   -0.554132
    45  C   -0.380766
    46  C    0.626563
    47  N   -0.737190
    48  O   -0.537720
    49  H    0.352993
    50  H    0.210958
    51  H    0.194829
    52  H    0.188601
    53  H    0.358359
    54  H    0.355308
    55  N   -0.622895
    56  C    0.012438
    57  C    0.586799
    58  O   -0.516500
    59  C   -0.275648
    60  C   -0.288379
    61  C   -0.167124
    62  N   -0.594378
    63  C    0.779753
    64  N   -0.752294
    65  N   -0.777779
    66  O   -0.617573
    67  H    0.488061
    68  H    0.389326
    69  H    0.142987
    70  H    0.188812
    71  H    0.167762
    72  H    0.146872
    73  H    0.176069
    74  H    0.165453
    75  H    0.207346
    76  H    0.389980
    77  H    0.380259
    78  H    0.386414
    79  H    0.370573
    80  H    0.408449
 Sum of Mulliken charges =   1.00000

 Dipole moment (field-independent basis, Debye):
    X=            -26.1153    Y=             50.1217    Z=            -36.4069  Tot=             67.2284
 Quadrupole moment (field-independent basis, Debye-Ang):
   XX=             24.4178   YY=            315.1599   ZZ=             97.4773
   XY=           -255.2508   XZ=            201.6716   YZ=           -414.6712

 Normal termination of Gaussian 16 at Sat Jun 11 21:07:23 2022.
