 Gaussian 16, Revision C.01,
 Gaussian 16:  ES64L-G16RevC.01  3-Jul-2019

 ----------------------------------------------------------------------
 # B3LYP/6-31G* empiricaldispersion=gd3 guess=read geom=check nosymm in
 tegral(ultrafinegrid)
 ----------------------------------------------------------------------

 ------------------------------------------------------
 Candidate Structure: Conf:950 Charge calc in gas phase
 ------------------------------------------------------
 Structure from the checkpoint file:  "conf-950.chk"
 Charge =  1 Multiplicity = 1

                          Input orientation:
 ---------------------------------------------------------------------
 Center     Atomic      Atomic             Coordinates (Angstroms)
 Number     Number       Type             X           Y           Z
 ---------------------------------------------------------------------
      1          7           0       -1.922259   15.466187   -5.077728
      2          6           0       -2.143507   14.078544   -5.466508
      3          6           0       -0.927033   13.181150   -5.142217
      4          8           0        0.172263   13.658523   -4.882495
      5          6           0       -2.447849   14.003652   -6.991311
      6          6           0       -3.797164   14.596598   -7.320174
      7          6           0       -4.908500   13.756792   -7.480909
      8          6           0       -3.986538   15.984886   -7.410426
      9          6           0       -6.177197   14.284364   -7.741132
     10          6           0       -5.253367   16.516433   -7.665539
     11          6           0       -6.353752   15.668870   -7.837839
     12          1           0       -0.916232   15.636905   -5.138718
     13          1           0       -3.018502   13.687596   -4.933181
     14          1           0       -2.408517   12.964141   -7.336433
     15          1           0       -1.642135   14.546411   -7.502316
     16          1           0       -4.775743   12.682690   -7.373283
     17          1           0       -3.142320   16.641752   -7.224381
     18          1           0       -7.030248   13.617726   -7.842189
     19          1           0       -5.387688   17.594299   -7.708110
     20          1           0       -7.341503   16.084111   -8.018697
     21          1           0       -2.154660   15.589887   -4.094425
     22          7           0       -1.170900   11.841099   -5.185291
     23          6           0       -0.061590   10.873419   -5.123682
     24          6           0       -0.545317    9.638102   -5.880661
     25          8           0       -0.071840    9.291870   -6.955438
     26          6           0        0.383241   10.601891   -3.675721
     27          6           0        1.439071    9.490618   -3.524149
     28          6           0        2.681593    9.743807   -4.392406
     29          6           0        1.823462    9.340761   -2.045628
     30          1           0       -2.027306   11.522820   -5.632661
     31          1           0        0.778747   11.276421   -5.692796
     32          1           0        0.774168   11.549064   -3.285784
     33          1           0       -0.499594   10.356742   -3.068324
     34          1           0        0.982348    8.544324   -3.852790
     35          1           0        2.448649    9.704307   -5.462022
     36          1           0        3.117077   10.726841   -4.172465
     37          1           0        3.448830    8.986830   -4.195877
     38          1           0        2.301772   10.255900   -1.674571
     39          1           0        0.945274    9.144551   -1.418458
     40          1           0        2.529381    8.514777   -1.905140
     41          7           0       -1.608371    8.976317   -5.297560
     42          6           0       -2.487133    8.206357   -6.157716
     43          6           0       -3.153559    9.175108   -7.175794
     44          8           0       -3.123617   10.401211   -7.013757
     45          6           0       -3.473572    7.369183   -5.330884
     46          6           0       -4.021977    6.169990   -6.111673
     47          7           0       -4.779463    5.311909   -5.389525
     48          8           0       -3.796096    5.994271   -7.308886
     49          1           0       -2.046506    9.448564   -4.515375
     50          1           0       -1.856823    7.532915   -6.743317
     51          1           0       -2.945593    6.998918   -4.443312
     52          1           0       -4.311628    7.980194   -4.970065
     53          1           0       -5.130996    4.480868   -5.846504
     54          1           0       -4.898198    5.395725   -4.390537
     55          7           0       -3.653182    8.605481   -8.298903
     56          6           0       -3.657581    9.366369   -9.549481
     57          6           0       -2.251384    9.993233   -9.709414
     58          8           0       -2.005059   11.161218   -9.974766
     59          6           0       -4.790142   10.398756   -9.629452
     60          6           0       -5.031326   10.981151  -11.045463
     61          6           0       -5.167609   12.507371  -11.036115
     62          7           0       -3.872003   13.084372  -10.667280
     63          6           0       -3.607409   14.371564  -10.527664
     64          7           0       -4.581642   15.295388  -10.650346
     65          7           0       -2.328065   14.775195  -10.360001
     66          8           0       -1.313442    9.080190   -9.491705
     67          1           0       -0.449581    9.502385   -9.315859
     68          1           0       -3.582920    7.587892   -8.340898
     69          1           0       -3.769397    8.629947  -10.353873
     70          1           0       -4.562035   11.190810   -8.913718
     71          1           0       -5.697320    9.906615   -9.267306
     72          1           0       -4.215105   10.713508  -11.728710
     73          1           0       -5.941928   10.559536  -11.481602
     74          1           0       -5.466798   12.888737  -12.018829
     75          1           0       -5.928773   12.808089  -10.302781
     76          1           0       -3.139130   12.411467  -10.406555
     77          1           0       -4.338678   16.257211  -10.453970
     78          1           0       -5.499393   15.044328  -10.299776
     79          1           0       -2.156484   15.620005   -9.831137
     80          1           0       -1.607000   14.067530  -10.293254
 ---------------------------------------------------------------------

 SCF Done:  E(RB3LYP) =  -1866.73746356     A.U. after    2 cycles

 Alpha  occ. eigenvalues --  -19.30362 -19.26687 -19.23483 -19.22379 -19.21376
 Alpha  occ. eigenvalues --  -19.19369 -14.50267 -14.49890 -14.49452 -14.46048
 Alpha  occ. eigenvalues --  -14.45909 -14.45491 -14.43493 -14.38959 -10.46268
 Alpha  occ. eigenvalues --  -10.44280 -10.40091 -10.39655 -10.38008 -10.35910
 Alpha  occ. eigenvalues --  -10.35516 -10.35012 -10.33856 -10.31220 -10.30802
 Alpha  occ. eigenvalues --  -10.30728 -10.30689 -10.29796 -10.29351 -10.29120
 Alpha  occ. eigenvalues --  -10.28882 -10.28801 -10.28705 -10.28319 -10.28270
 Alpha  occ. eigenvalues --  -10.25452 -10.25378 -10.23135 -10.22974  -1.22242
 Alpha  occ. eigenvalues --   -1.15156  -1.15094  -1.13992  -1.13431  -1.12933
 Alpha  occ. eigenvalues --   -1.11091  -1.04486  -1.03371  -1.03279  -1.02495
 Alpha  occ. eigenvalues --   -1.00906  -0.99891  -0.96896  -0.94946  -0.91793
 Alpha  occ. eigenvalues --   -0.89235  -0.87687  -0.87017  -0.86310  -0.84139
 Alpha  occ. eigenvalues --   -0.82645  -0.80572  -0.79884  -0.77689  -0.77229
 Alpha  occ. eigenvalues --   -0.74273  -0.74049  -0.73704  -0.72466  -0.71688
 Alpha  occ. eigenvalues --   -0.70858  -0.70197  -0.69427  -0.68531  -0.67826
 Alpha  occ. eigenvalues --   -0.67566  -0.66920  -0.65835  -0.64481  -0.63969
 Alpha  occ. eigenvalues --   -0.63833  -0.63413  -0.62583  -0.62006  -0.61224
 Alpha  occ. eigenvalues --   -0.60895  -0.60248  -0.59728  -0.59039  -0.58493
 Alpha  occ. eigenvalues --   -0.58347  -0.57009  -0.56347  -0.55856  -0.55472
 Alpha  occ. eigenvalues --   -0.55103  -0.54907  -0.54529  -0.54060  -0.53563
 Alpha  occ. eigenvalues --   -0.53438  -0.53001  -0.52332  -0.51839  -0.51597
 Alpha  occ. eigenvalues --   -0.51276  -0.50900  -0.50872  -0.50520  -0.50053
 Alpha  occ. eigenvalues --   -0.49526  -0.48896  -0.48672  -0.48164  -0.47939
 Alpha  occ. eigenvalues --   -0.47277  -0.46795  -0.46464  -0.46288  -0.46079
 Alpha  occ. eigenvalues --   -0.45696  -0.45654  -0.45364  -0.44595  -0.43889
 Alpha  occ. eigenvalues --   -0.43520  -0.43304  -0.43215  -0.43128  -0.42208
 Alpha  occ. eigenvalues --   -0.41446  -0.40937  -0.39454  -0.39364  -0.39001
 Alpha  occ. eigenvalues --   -0.38596  -0.37641  -0.37218  -0.36368  -0.36358
 Alpha  occ. eigenvalues --   -0.35662  -0.35145  -0.34760  -0.34536  -0.33322
 Alpha  occ. eigenvalues --   -0.32596  -0.31408
 Alpha virt. eigenvalues --   -0.11948  -0.11551  -0.10547  -0.10370  -0.09583
 Alpha virt. eigenvalues --   -0.08177  -0.07555  -0.05713  -0.04963  -0.03003
 Alpha virt. eigenvalues --   -0.01880  -0.01642  -0.01278  -0.01115  -0.00639

 Mulliken charges:
               1
     1  N   -0.712128
     2  C   -0.082223
     3  C    0.592202
     4  O   -0.514923
     5  C   -0.362085
     6  C    0.151512
     7  C   -0.207902
     8  C   -0.187315
     9  C   -0.161297
    10  C   -0.149867
    11  C   -0.158565
    12  H    0.323809
    13  H    0.154595
    14  H    0.169305
    15  H    0.128796
    16  H    0.165059
    17  H    0.162018
    18  H    0.146026
    19  H    0.155009
    20  H    0.154881
    21  H    0.315389
    22  N   -0.661034
    23  C   -0.036641
    24  C    0.592507
    25  O   -0.532354
    26  C   -0.262073
    27  C   -0.082678
    28  C   -0.459344
    29  C   -0.443850
    30  H    0.368650
    31  H    0.191211
    32  H    0.178196
    33  H    0.117783
    34  H    0.127730
    35  H    0.155473
    36  H    0.152705
    37  H    0.152911
    38  H    0.151712
    39  H    0.137600
    40  H    0.152609
    41  N   -0.596061
    42  C   -0.046454
    43  C    0.601174
    44  O   -0.547773
    45  C   -0.413612
    46  C    0.631873
    47  N   -0.740201
    48  O   -0.521360
    49  H    0.335642
    50  H    0.223380
    51  H    0.199478
    52  H    0.188668
    53  H    0.365715
    54  H    0.355869
    55  N   -0.595754
    56  C   -0.046689
    57  C    0.618457
    58  O   -0.512742
    59  C   -0.296184
    60  C   -0.320968
    61  C   -0.145655
    62  N   -0.626904
    63  C    0.762439
    64  N   -0.719777
    65  N   -0.745715
    66  O   -0.530772
    67  H    0.448723
    68  H    0.394784
    69  H    0.197490
    70  H    0.190601
    71  H    0.174006
    72  H    0.169631
    73  H    0.181281
    74  H    0.191806
    75  H    0.170031
    76  H    0.429346
    77  H    0.364271
    78  H    0.375496
    79  H    0.369957
    80  H    0.383092
 Sum of Mulliken charges =   1.00000

 Dipole moment (field-independent basis, Debye):
    X=            -21.3782    Y=             55.2534    Z=            -39.3063  Tot=             71.0982
 Quadrupole moment (field-independent basis, Debye-Ang):
   XX=           -123.3680   YY=            490.0264   ZZ=            141.9759
   XY=           -243.0231   XZ=            176.0157   YZ=           -498.6718

 Normal termination of Gaussian 16 at Sat Jun 11 21:07:24 2022.
