 Gaussian 16, Revision C.01,
 Gaussian 16:  ES64L-G16RevC.01  3-Jul-2019

 ----------------------------------------------------------------------
 # B3LYP/6-31G* empiricaldispersion=gd3 guess=read geom=check nosymm in
 tegral(ultrafinegrid)
 ----------------------------------------------------------------------

 ------------------------------------------------------
 Candidate Structure: Conf:731 Charge calc in gas phase
 ------------------------------------------------------
 Structure from the checkpoint file:  "conf-731.chk"
 Charge =  1 Multiplicity = 1

                          Input orientation:
 ---------------------------------------------------------------------
 Center     Atomic      Atomic             Coordinates (Angstroms)
 Number     Number       Type             X           Y           Z
 ---------------------------------------------------------------------
      1          7           0       -2.032018   11.495263  -10.327155
      2          6           0       -2.928031   10.494747   -9.782808
      3          6           0       -4.008020   11.089374   -8.856552
      4          8           0       -3.984621   12.272612   -8.474561
      5          6           0       -2.126963    9.393267   -9.036011
      6          6           0       -1.049612    8.770889   -9.891903
      7          6           0       -1.357501    7.764375  -10.814304
      8          6           0        0.277383    9.202987   -9.784040
      9          6           0       -0.364025    7.202868  -11.616733
     10          6           0        1.274647    8.643469  -10.583185
     11          6           0        0.956680    7.641993  -11.502711
     12          1           0       -1.383513   11.819709   -9.612164
     13          1           0       -3.457707   10.019015  -10.622316
     14          1           0       -2.827016    8.621289   -8.692038
     15          1           0       -1.690850    9.838903   -8.138808
     16          1           0       -2.384333    7.413662  -10.903232
     17          1           0        0.522986    9.985328   -9.069129
     18          1           0       -0.618806    6.419894  -12.325799
     19          1           0        2.301568    8.987036  -10.487999
     20          1           0        1.732788    7.203511  -12.123801
     21          1           0       -2.557883   12.300332  -10.659160
     22          7           0       -5.022834   10.280095   -8.475535
     23          6           0       -6.176212   10.773642   -7.713694
     24          6           0       -5.798079   11.274625   -6.306656
     25          8           0       -6.404820   12.202940   -5.798840
     26          6           0       -7.262834    9.691008   -7.611962
     27          6           0       -7.850399    9.201438   -8.951877
     28          6           0       -8.911931    8.125178   -8.680716
     29          6           0       -8.432729   10.350054   -9.786685
     30          1           0       -5.077465    9.355067   -8.881424
     31          1           0       -6.570982   11.662043   -8.212902
     32          1           0       -6.859117    8.836566   -7.050512
     33          1           0       -8.070026   10.112709   -7.000788
     34          1           0       -7.048356    8.727909   -9.541483
     35          1           0       -9.752337    8.545170   -8.114207
     36          1           0       -9.309534    7.721882   -9.618212
     37          1           0       -8.500553    7.290318   -8.101165
     38          1           0       -9.203743   10.888254   -9.221269
     39          1           0       -7.667464   11.074941  -10.085725
     40          1           0       -8.896307    9.965792  -10.701593
     41          7           0       -4.809306   10.564668   -5.660778
     42          6           0       -4.048533   11.223389   -4.608341
     43          6           0       -2.653016   11.497955   -5.199721
     44          8           0       -2.239959   10.840158   -6.160958
     45          6           0       -4.009208   10.406582   -3.305587
     46          6           0       -3.597366   11.254775   -2.100694
     47          7           0       -3.720031   10.645414   -0.896811
     48          8           0       -3.176583   12.408877   -2.203504
     49          1           0       -4.231524    9.985125   -6.262018
     50          1           0       -4.544471   12.175262   -4.401887
     51          1           0       -5.012339    9.998505   -3.136373
     52          1           0       -3.331465    9.547686   -3.397947
     53          1           0       -3.511804   11.179870   -0.063979
     54          1           0       -4.154254    9.740485   -0.789178
     55          7           0       -1.947123   12.533333   -4.704689
     56          6           0       -0.788293   13.040772   -5.431851
     57          6           0       -1.083306   12.892582   -6.939396
     58          8           0       -0.334953   12.359559   -7.747581
     59          6           0        0.562135   12.426603   -5.011964
     60          6           0        1.765909   13.389834   -5.071694
     61          6           0        2.321576   13.750106   -6.459257
     62          7           0        1.380378   14.493608   -7.320986
     63          6           0        0.915514   15.723753   -7.106656
     64          7           0        1.655732   16.626228   -6.439216
     65          7           0       -0.301443   16.066446   -7.559948
     66          8           0       -2.174549   13.584037   -7.278648
     67          1           0       -2.728404   13.108879   -7.993674
     68          1           0       -2.284101   12.967882   -3.846812
     69          1           0       -0.774749   14.121840   -5.235945
     70          1           0        0.748147   11.528234   -5.609286
     71          1           0        0.455868   12.104631   -3.971242
     72          1           0        1.522412   14.316077   -4.531934
     73          1           0        2.598616   12.932043   -4.523851
     74          1           0        3.251775   14.320007   -6.359246
     75          1           0        2.567262   12.846404   -7.021080
     76          1           0        0.818063   13.895832   -7.922184
     77          1           0        1.267704   17.511899   -6.148785
     78          1           0        2.650769   16.496214   -6.327600
     79          1           0       -0.581394   17.035180   -7.623985
     80          1           0       -1.014900   15.360240   -7.734967
 ---------------------------------------------------------------------

 SCF Done:  E(RB3LYP) =  -1866.72441792     A.U. after    3 cycles

 Alpha  occ. eigenvalues --  -19.27980 -19.25181 -19.22300 -19.21901 -19.21280
 Alpha  occ. eigenvalues --  -19.18924 -14.53035 -14.52143 -14.51455 -14.45768
 Alpha  occ. eigenvalues --  -14.45558 -14.44957 -14.43118 -14.38204 -10.48813
 Alpha  occ. eigenvalues --  -10.43511 -10.38853 -10.38409 -10.38025 -10.36074
 Alpha  occ. eigenvalues --  -10.36060 -10.34979 -10.32144 -10.31195 -10.31088
 Alpha  occ. eigenvalues --  -10.30346 -10.29515 -10.29243 -10.26674 -10.26618
 Alpha  occ. eigenvalues --  -10.25943 -10.25096 -10.24220 -10.24211 -10.24139
 Alpha  occ. eigenvalues --  -10.24096 -10.24001 -10.23987 -10.23868  -1.20345
 Alpha  occ. eigenvalues --   -1.17143  -1.14042  -1.13631  -1.12782  -1.11697
 Alpha  occ. eigenvalues --   -1.10821  -1.06234  -1.05418  -1.02502  -1.02077
 Alpha  occ. eigenvalues --   -0.99921  -0.99740  -0.96263  -0.91681  -0.90651
 Alpha  occ. eigenvalues --   -0.88875  -0.87768  -0.86011  -0.84129  -0.82583
 Alpha  occ. eigenvalues --   -0.81826  -0.79578  -0.78678  -0.77915  -0.76646
 Alpha  occ. eigenvalues --   -0.74956  -0.74692  -0.74068  -0.72942  -0.72047
 Alpha  occ. eigenvalues --   -0.70426  -0.69686  -0.68192  -0.67560  -0.66713
 Alpha  occ. eigenvalues --   -0.66587  -0.65794  -0.65764  -0.65398  -0.64385
 Alpha  occ. eigenvalues --   -0.63619  -0.63601  -0.62724  -0.61789  -0.61110
 Alpha  occ. eigenvalues --   -0.59883  -0.59030  -0.58496  -0.57951  -0.57338
 Alpha  occ. eigenvalues --   -0.57160  -0.56518  -0.56206  -0.56061  -0.55760
 Alpha  occ. eigenvalues --   -0.55210  -0.54447  -0.53607  -0.53284  -0.52647
 Alpha  occ. eigenvalues --   -0.52151  -0.51838  -0.51609  -0.51116  -0.50812
 Alpha  occ. eigenvalues --   -0.50569  -0.49948  -0.49699  -0.49302  -0.48710
 Alpha  occ. eigenvalues --   -0.48396  -0.47898  -0.47242  -0.47202  -0.46690
 Alpha  occ. eigenvalues --   -0.46464  -0.46137  -0.45678  -0.45620  -0.45426
 Alpha  occ. eigenvalues --   -0.45191  -0.44915  -0.44435  -0.44144  -0.43875
 Alpha  occ. eigenvalues --   -0.43025  -0.42404  -0.41828  -0.40650  -0.40558
 Alpha  occ. eigenvalues --   -0.39936  -0.39840  -0.39673  -0.39581  -0.39175
 Alpha  occ. eigenvalues --   -0.38908  -0.36834  -0.36345  -0.36044  -0.35605
 Alpha  occ. eigenvalues --   -0.35454  -0.35362  -0.33349  -0.31984  -0.31145
 Alpha  occ. eigenvalues --   -0.30049  -0.29333
 Alpha virt. eigenvalues --   -0.13534  -0.11929  -0.08722  -0.07909  -0.07732
 Alpha virt. eigenvalues --   -0.06623  -0.05334  -0.05289  -0.05242  -0.05061
 Alpha virt. eigenvalues --   -0.02664  -0.02088  -0.01520  -0.00956  -0.00340

 Mulliken charges:
               1
     1  N   -0.722650
     2  C   -0.067830
     3  C    0.636119
     4  O   -0.579245
     5  C   -0.414707
     6  C    0.214759
     7  C   -0.180684
     8  C   -0.178095
     9  C   -0.127252
    10  C   -0.130526
    11  C   -0.127770
    12  H    0.325788
    13  H    0.160235
    14  H    0.133795
    15  H    0.204650
    16  H    0.112766
    17  H    0.124163
    18  H    0.137662
    19  H    0.125159
    20  H    0.137251
    21  H    0.301101
    22  N   -0.631214
    23  C   -0.021776
    24  C    0.604619
    25  O   -0.501282
    26  C   -0.304615
    27  C   -0.082063
    28  C   -0.443388
    29  C   -0.450519
    30  H    0.347273
    31  H    0.194797
    32  H    0.142472
    33  H    0.177225
    34  H    0.112027
    35  H    0.154148
    36  H    0.157227
    37  H    0.145353
    38  H    0.156817
    39  H    0.145751
    40  H    0.158624
    41  N   -0.604074
    42  C   -0.065503
    43  C    0.616605
    44  O   -0.543791
    45  C   -0.386629
    46  C    0.624655
    47  N   -0.739826
    48  O   -0.533837
    49  H    0.348121
    50  H    0.215844
    51  H    0.197658
    52  H    0.187181
    53  H    0.359372
    54  H    0.354787
    55  N   -0.612473
    56  C    0.018227
    57  C    0.584994
    58  O   -0.507291
    59  C   -0.275378
    60  C   -0.289677
    61  C   -0.167783
    62  N   -0.595370
    63  C    0.785857
    64  N   -0.751559
    65  N   -0.772864
    66  O   -0.610406
    67  H    0.462882
    68  H    0.385683
    69  H    0.151369
    70  H    0.191166
    71  H    0.172863
    72  H    0.148365
    73  H    0.179670
    74  H    0.169294
    75  H    0.209038
    76  H    0.393455
    77  H    0.382290
    78  H    0.388049
    79  H    0.376862
    80  H    0.406010
 Sum of Mulliken charges =   1.00000

 Dipole moment (field-independent basis, Debye):
    X=             -2.6792    Y=             64.8679    Z=            -28.1437  Tot=             70.7608
 Quadrupole moment (field-independent basis, Debye-Ang):
   XX=           -170.5884   YY=            722.2880   ZZ=            -22.4415
   XY=             24.5465   XZ=             19.3717   YZ=           -393.1618

 Normal termination of Gaussian 16 at Sat Jun 11 21:07:39 2022.
