 Gaussian 16, Revision C.01,
 Gaussian 16:  ES64L-G16RevC.01  3-Jul-2019

 ----------------------------------------------------------------------
 # B3LYP/6-31G* empiricaldispersion=gd3 guess=read geom=check nosymm in
 tegral(ultrafinegrid)
 ----------------------------------------------------------------------

 ------------------------------------------------------
 Candidate Structure: Conf:669 Charge calc in gas phase
 ------------------------------------------------------
 Structure from the checkpoint file:  "conf-669.chk"
 Charge =  1 Multiplicity = 1

                          Input orientation:
 ---------------------------------------------------------------------
 Center     Atomic      Atomic             Coordinates (Angstroms)
 Number     Number       Type             X           Y           Z
 ---------------------------------------------------------------------
      1          7           0       -2.030346   13.691483   -6.740888
      2          6           0       -2.374473   13.742823   -8.182537
      3          6           0       -3.803036   13.166235   -8.313709
      4          8           0       -4.521707   13.074415   -7.320076
      5          6           0       -1.306587   13.032756   -9.039152
      6          6           0        0.117633   13.455472   -8.723678
      7          6           0        0.478358   14.802758   -8.578726
      8          6           0        1.115431   12.481466   -8.584038
      9          6           0        1.795130   15.167871   -8.291498
     10          6           0        2.438600   12.841839   -8.317763
     11          6           0        2.782350   14.187589   -8.160881
     12          1           0       -2.921671   13.723432   -6.235555
     13          1           0       -2.452984   14.792495   -8.502720
     14          1           0       -1.508123   13.245358  -10.098897
     15          1           0       -1.409362   11.955559   -8.896087
     16          1           0       -0.270391   15.582512   -8.702317
     17          1           0        0.850491   11.432226   -8.679233
     18          1           0        2.052850   16.218305   -8.188116
     19          1           0        3.199933   12.069482   -8.240085
     20          1           0        3.813154   14.473067   -7.967260
     21          1           0       -1.482846   14.512021   -6.488580
     22          7           0       -4.232036   12.817933   -9.551744
     23          6           0       -5.608893   12.355938   -9.786229
     24          6           0       -5.960022   11.157618   -8.880926
     25          8           0       -7.044750   11.071089   -8.332912
     26          6           0       -5.781200   12.022838  -11.277951
     27          6           0       -7.157171   11.445112  -11.663569
     28          6           0       -8.314195   12.364442  -11.246258
     29          6           0       -7.186677   11.164295  -13.172551
     30          1           0       -3.622950   12.934403  -10.349550
     31          1           0       -6.301493   13.145119   -9.483918
     32          1           0       -5.604210   12.942346  -11.855417
     33          1           0       -4.999075   11.306053  -11.568089
     34          1           0       -7.279062   10.488965  -11.136087
     35          1           0       -8.182592   13.373360  -11.659774
     36          1           0       -9.265970   11.974372  -11.623089
     37          1           0       -8.394904   12.436803  -10.157799
     38          1           0       -7.090128   12.095274  -13.746004
     39          1           0       -6.371857   10.495953  -13.476781
     40          1           0       -8.132646   10.693945  -13.461482
     41          7           0       -4.977314   10.192609   -8.787289
     42          6           0       -4.837135    9.469633   -7.530246
     43          6           0       -3.544003   10.003716   -6.882394
     44          8           0       -2.690208   10.584211   -7.568512
     45          6           0       -4.835039    7.941525   -7.720773
     46          6           0       -5.154344    7.188130   -6.428682
     47          7           0       -5.433011    5.871329   -6.581383
     48          8           0       -5.155214    7.724772   -5.318638
     49          1           0       -4.071426   10.484121   -9.143766
     50          1           0       -5.690568    9.736220   -6.900964
     51          1           0       -5.588191    7.702016   -8.479869
     52          1           0       -3.869853    7.594755   -8.112835
     53          1           0       -5.689408    5.336241   -5.762562
     54          1           0       -5.530334    5.438406   -7.487883
     55          7           0       -3.396837    9.862855   -5.555893
     56          6           0       -2.336916   10.590057   -4.880910
     57          6           0       -1.028202   10.532119   -5.687321
     58          8           0       -0.380737    9.496228   -5.759711
     59          6           0       -2.083596   10.001098   -3.479957
     60          6           0       -1.090618   10.797806   -2.594703
     61          6           0        0.365551   10.284852   -2.518154
     62          7           0        1.182137   10.563400   -3.709357
     63          6           0        1.936889   11.645667   -3.918792
     64          7           0        2.528600   12.282358   -2.885229
     65          7           0        2.110609   12.084402   -5.169185
     66          8           0       -0.505615   11.692039   -6.064561
     67          1           0       -1.201009   12.459144   -6.305674
     68          1           0       -4.066071    9.270718   -5.061291
     69          1           0       -2.639641   11.641410   -4.783473
     70          1           0       -1.748754    8.965467   -3.605392
     71          1           0       -3.051033    9.965308   -2.966227
     72          1           0       -1.078819   11.857617   -2.882759
     73          1           0       -1.462396   10.771207   -1.563937
     74          1           0        0.849112   10.732231   -1.646262
     75          1           0        0.379379    9.201326   -2.367965
     76          1           0        0.901238   10.051521   -4.551698
     77          1           0        3.020535   13.150878   -3.035171
     78          1           0        2.728865   11.786820   -2.028675
     79          1           0        2.811960   12.771646   -5.406088
     80          1           0        1.365758   11.915030   -5.851927
 ---------------------------------------------------------------------

 SCF Done:  E(RB3LYP) =  -1866.74292464     A.U. after    3 cycles

 Alpha  occ. eigenvalues --  -19.26193 -19.22292 -19.21372 -19.21124 -19.20673
 Alpha  occ. eigenvalues --  -19.18670 -14.51098 -14.49220 -14.49147 -14.45575
 Alpha  occ. eigenvalues --  -14.44834 -14.44699 -14.44381 -14.42369 -10.46508
 Alpha  occ. eigenvalues --  -10.41078 -10.38324 -10.38246 -10.37773 -10.35643
 Alpha  occ. eigenvalues --  -10.35003 -10.33394 -10.33374 -10.31627 -10.30997
 Alpha  occ. eigenvalues --  -10.30427 -10.29553 -10.29172 -10.28689 -10.28610
 Alpha  occ. eigenvalues --  -10.28326 -10.28299 -10.28251 -10.28229 -10.27896
 Alpha  occ. eigenvalues --  -10.26628 -10.25292 -10.23089 -10.22403  -1.18073
 Alpha  occ. eigenvalues --   -1.14818  -1.13586  -1.13033  -1.12178  -1.10461
 Alpha  occ. eigenvalues --   -1.09513  -1.04202  -1.03001  -1.01976  -1.01716
 Alpha  occ. eigenvalues --   -1.00860  -0.99431  -0.99155  -0.94706  -0.90776
 Alpha  occ. eigenvalues --   -0.88673  -0.87336  -0.86772  -0.84950  -0.83600
 Alpha  occ. eigenvalues --   -0.83046  -0.80484  -0.79563  -0.77025  -0.75703
 Alpha  occ. eigenvalues --   -0.74670  -0.73810  -0.72394  -0.72019  -0.71955
 Alpha  occ. eigenvalues --   -0.69826  -0.69342  -0.68539  -0.68129  -0.67908
 Alpha  occ. eigenvalues --   -0.66938  -0.66396  -0.64798  -0.64605  -0.63677
 Alpha  occ. eigenvalues --   -0.63463  -0.63047  -0.62417  -0.61745  -0.61279
 Alpha  occ. eigenvalues --   -0.60289  -0.60083  -0.59887  -0.58181  -0.57493
 Alpha  occ. eigenvalues --   -0.57195  -0.56019  -0.55659  -0.55307  -0.54950
 Alpha  occ. eigenvalues --   -0.54708  -0.54657  -0.53903  -0.53420  -0.52741
 Alpha  occ. eigenvalues --   -0.52701  -0.52242  -0.51615  -0.51305  -0.51015
 Alpha  occ. eigenvalues --   -0.50961  -0.50081  -0.49919  -0.49609  -0.49469
 Alpha  occ. eigenvalues --   -0.48907  -0.48275  -0.48045  -0.47625  -0.47193
 Alpha  occ. eigenvalues --   -0.46910  -0.46417  -0.46091  -0.45572  -0.45176
 Alpha  occ. eigenvalues --   -0.44854  -0.44632  -0.44390  -0.44297  -0.43651
 Alpha  occ. eigenvalues --   -0.43275  -0.42913  -0.42775  -0.42159  -0.41891
 Alpha  occ. eigenvalues --   -0.40029  -0.39254  -0.38768  -0.38649  -0.38486
 Alpha  occ. eigenvalues --   -0.38375  -0.36616  -0.36140  -0.35668  -0.35176
 Alpha  occ. eigenvalues --   -0.35072  -0.34777  -0.34531  -0.34261  -0.33468
 Alpha  occ. eigenvalues --   -0.32863  -0.31577
 Alpha virt. eigenvalues --   -0.11651  -0.10098  -0.09579  -0.08947  -0.07957
 Alpha virt. eigenvalues --   -0.06800  -0.06570  -0.05930  -0.05141  -0.03072
 Alpha virt. eigenvalues --   -0.02379  -0.01114  -0.00332  -0.00160   0.00020

 Mulliken charges:
               1
     1  N   -0.818642
     2  C   -0.067613
     3  C    0.672339
     4  O   -0.538691
     5  C   -0.390430
     6  C    0.171105
     7  C   -0.199541
     8  C   -0.187284
     9  C   -0.130148
    10  C   -0.160818
    11  C   -0.152170
    12  H    0.366747
    13  H    0.174082
    14  H    0.155114
    15  H    0.214380
    16  H    0.133876
    17  H    0.158572
    18  H    0.150532
    19  H    0.148232
    20  H    0.145009
    21  H    0.336727
    22  N   -0.657189
    23  C   -0.016766
    24  C    0.618235
    25  O   -0.499927
    26  C   -0.307174
    27  C   -0.078838
    28  C   -0.462610
    29  C   -0.445405
    30  H    0.340425
    31  H    0.196669
    32  H    0.146901
    33  H    0.137662
    34  H    0.147368
    35  H    0.135980
    36  H    0.153997
    37  H    0.178455
    38  H    0.145017
    39  H    0.139891
    40  H    0.156960
    41  N   -0.599175
    42  C   -0.070978
    43  C    0.638155
    44  O   -0.571002
    45  C   -0.384212
    46  C    0.628598
    47  N   -0.739761
    48  O   -0.533413
    49  H    0.342984
    50  H    0.216228
    51  H    0.195027
    52  H    0.189893
    53  H    0.359324
    54  H    0.353934
    55  N   -0.630238
    56  C    0.010076
    57  C    0.649839
    58  O   -0.518407
    59  C   -0.319625
    60  C   -0.279314
    61  C   -0.166781
    62  N   -0.607151
    63  C    0.774987
    64  N   -0.750560
    65  N   -0.779988
    66  O   -0.675956
    67  H    0.511292
    68  H    0.392864
    69  H    0.153196
    70  H    0.185489
    71  H    0.173844
    72  H    0.152961
    73  H    0.175954
    74  H    0.160532
    75  H    0.197656
    76  H    0.406491
    77  H    0.372928
    78  H    0.379754
    79  H    0.358486
    80  H    0.435038
 Sum of Mulliken charges =   1.00000

 Dipole moment (field-independent basis, Debye):
    X=              0.4903    Y=             55.8924    Z=            -26.9648  Tot=             62.0589
 Quadrupole moment (field-independent basis, Debye-Ang):
   XX=           -192.9951   YY=            481.8286   ZZ=            -11.0871
   XY=             43.3795   XZ=             40.9338   YZ=           -314.8487

 Normal termination of Gaussian 16 at Sat Jun 11 21:07:42 2022.
