 Gaussian 16, Revision C.01,
 Gaussian 16:  ES64L-G16RevC.01  3-Jul-2019

 ----------------------------------------------------------------------
 # B3LYP/6-31G* empiricaldispersion=gd3 guess=read geom=check nosymm in
 tegral(ultrafinegrid)
 ----------------------------------------------------------------------

 ------------------------------------------------------
 Candidate Structure: Conf:234 Charge calc in gas phase
 ------------------------------------------------------
 Structure from the checkpoint file:  "conf-234.chk"
 Charge =  1 Multiplicity = 1

                          Input orientation:
 ---------------------------------------------------------------------
 Center     Atomic      Atomic             Coordinates (Angstroms)
 Number     Number       Type             X           Y           Z
 ---------------------------------------------------------------------
      1          7           0        1.039516   11.055551   -7.452686
      2          6           0        0.372649   11.429111   -6.222071
      3          6           0       -0.638132   10.395148   -5.712440
      4          8           0       -1.350164    9.720456   -6.477575
      5          6           0       -0.430297   12.757084   -6.394590
      6          6           0        0.327948   13.828907   -7.139599
      7          6           0        1.329125   14.574629   -6.506917
      8          6           0        0.041987   14.081868   -8.486432
      9          6           0        2.037220   15.551655   -7.205454
     10          6           0        0.748924   15.059950   -9.187467
     11          6           0        1.748539   15.796543   -8.550152
     12          1           0        0.409177   11.123234   -8.247256
     13          1           0        1.140911   11.587330   -5.451354
     14          1           0       -0.705385   13.113167   -5.392155
     15          1           0       -1.363559   12.540667   -6.924857
     16          1           0        1.556504   14.388999   -5.458867
     17          1           0       -0.739675   13.510257   -8.982510
     18          1           0        2.811087   16.123986   -6.701390
     19          1           0        0.517398   15.250241  -10.232434
     20          1           0        2.297770   16.559287   -9.095034
     21          1           0        1.380623   10.098295   -7.409320
     22          7           0       -0.831416   10.312955   -4.375637
     23          6           0       -1.908546    9.486376   -3.821942
     24          6           0       -3.256205    9.874643   -4.456809
     25          8           0       -4.090149    9.025260   -4.749238
     26          6           0       -1.968547    9.607227   -2.291999
     27          6           0       -0.707438    9.140129   -1.535591
     28          6           0       -0.915287    9.338409   -0.026855
     29          6           0       -0.343107    7.683492   -1.853596
     30          1           0       -0.187681   10.776622   -3.748337
     31          1           0       -1.754704    8.446582   -4.119994
     32          1           0       -2.194529   10.649724   -2.027508
     33          1           0       -2.825826    9.009028   -1.959017
     34          1           0        0.142590    9.775116   -1.834938
     35          1           0       -1.738857    8.710899    0.335716
     36          1           0       -0.014539    9.062443    0.531566
     37          1           0       -1.156206   10.380544    0.213916
     38          1           0        0.518002    7.363016   -1.257696
     39          1           0       -1.180092    7.014279   -1.618194
     40          1           0       -0.083339    7.540358   -2.908345
     41          7           0       -3.468639   11.216866   -4.626590
     42          6           0       -4.577911   11.677789   -5.456633
     43          6           0       -4.177519   11.588613   -6.940543
     44          8           0       -3.798730   12.562430   -7.590466
     45          6           0       -5.002617   13.100585   -5.117159
     46          6           0       -6.264550   13.454950   -5.910891
     47          7           0       -6.761023   14.698562   -5.682090
     48          8           0       -6.784438   12.664827   -6.691695
     49          1           0       -2.665962   11.828805   -4.548601
     50          1           0       -5.411601   10.996888   -5.279739
     51          1           0       -5.194720   13.182683   -4.041135
     52          1           0       -4.206729   13.808089   -5.378718
     53          1           0       -7.600310   14.980565   -6.168888
     54          1           0       -6.339666   15.344084   -5.031200
     55          7           0       -4.206161   10.338654   -7.473709
     56          6           0       -4.095630   10.161558   -8.912573
     57          6           0       -2.852465   10.900840   -9.460937
     58          8           0       -2.892072   11.587770  -10.478001
     59          6           0       -5.405904   10.575596   -9.616460
     60          6           0       -5.561278   10.067427  -11.074008
     61          6           0       -6.000518   11.159943  -12.063016
     62          7           0       -4.923455   12.160332  -12.174719
     63          6           0       -4.211236   12.421171  -13.269391
     64          7           0       -4.782476   12.410108  -14.488922
     65          7           0       -2.905357   12.701154  -13.144332
     66          8           0       -1.696044   10.676048   -8.877248
     67          1           0       -1.714222   10.211127   -7.981153
     68          1           0       -4.469079    9.558422   -6.879969
     69          1           0       -3.901243    9.095138   -9.085805
     70          1           0       -5.484188   11.666166   -9.544677
     71          1           0       -6.226029   10.191055   -9.004162
     72          1           0       -4.619503    9.641164  -11.440495
     73          1           0       -6.303182    9.262508  -11.110628
     74          1           0       -6.196763   10.729677  -13.049900
     75          1           0       -6.915290   11.653164  -11.717580
     76          1           0       -4.355760   12.217507  -11.322070
     77          1           0       -4.225474   12.458130  -15.329214
     78          1           0       -5.784834   12.478114  -14.585264
     79          1           0       -2.400247   13.208532  -13.855973
     80          1           0       -2.440890   12.485006  -12.263958
 ---------------------------------------------------------------------

 SCF Done:  E(RB3LYP) =  -1866.73719061     A.U. after    2 cycles

 Alpha  occ. eigenvalues --  -19.27527 -19.24177 -19.22899 -19.20914 -19.20444
 Alpha  occ. eigenvalues --  -19.19182 -14.51130 -14.49946 -14.48847 -14.46799
 Alpha  occ. eigenvalues --  -14.45143 -14.45030 -14.43477 -14.38792 -10.46573
 Alpha  occ. eigenvalues --  -10.42607 -10.38716 -10.37635 -10.37609 -10.37079
 Alpha  occ. eigenvalues --  -10.34558 -10.34250 -10.32231 -10.31978 -10.31282
 Alpha  occ. eigenvalues --  -10.29845 -10.28710 -10.28262 -10.27536 -10.27284
 Alpha  occ. eigenvalues --  -10.27271 -10.25931 -10.24946 -10.24909 -10.24813
 Alpha  occ. eigenvalues --  -10.24794 -10.24715 -10.24509 -10.24384  -1.19635
 Alpha  occ. eigenvalues --   -1.15093  -1.14517  -1.13086  -1.12109  -1.11019
 Alpha  occ. eigenvalues --   -1.10888  -1.04310  -1.03326  -1.03141  -1.01974
 Alpha  occ. eigenvalues --   -1.01062  -0.98209  -0.96912  -0.91377  -0.90393
 Alpha  occ. eigenvalues --   -0.89596  -0.87287  -0.85200  -0.84894  -0.83326
 Alpha  occ. eigenvalues --   -0.80285  -0.79426  -0.78877  -0.77339  -0.76070
 Alpha  occ. eigenvalues --   -0.75490  -0.73733  -0.72999  -0.72198  -0.71897
 Alpha  occ. eigenvalues --   -0.70667  -0.68953  -0.68502  -0.68156  -0.67415
 Alpha  occ. eigenvalues --   -0.66514  -0.66217  -0.64395  -0.64271  -0.64211
 Alpha  occ. eigenvalues --   -0.63936  -0.63649  -0.61786  -0.61181  -0.60300
 Alpha  occ. eigenvalues --   -0.60180  -0.59350  -0.58685  -0.57406  -0.57203
 Alpha  occ. eigenvalues --   -0.57097  -0.56510  -0.56145  -0.55432  -0.54261
 Alpha  occ. eigenvalues --   -0.54124  -0.53645  -0.53560  -0.52948  -0.52706
 Alpha  occ. eigenvalues --   -0.52310  -0.52040  -0.51647  -0.51202  -0.50520
 Alpha  occ. eigenvalues --   -0.50311  -0.49887  -0.49595  -0.49299  -0.48740
 Alpha  occ. eigenvalues --   -0.48002  -0.47910  -0.47322  -0.47047  -0.46803
 Alpha  occ. eigenvalues --   -0.46500  -0.46140  -0.45948  -0.45594  -0.45349
 Alpha  occ. eigenvalues --   -0.45192  -0.45027  -0.44128  -0.43874  -0.43701
 Alpha  occ. eigenvalues --   -0.43495  -0.41943  -0.41400  -0.41056  -0.40717
 Alpha  occ. eigenvalues --   -0.40516  -0.40334  -0.40195  -0.39904  -0.39264
 Alpha  occ. eigenvalues --   -0.38314  -0.37236  -0.37000  -0.36712  -0.34735
 Alpha  occ. eigenvalues --   -0.34319  -0.33700  -0.33246  -0.32813  -0.31430
 Alpha  occ. eigenvalues --   -0.30813  -0.30036
 Alpha virt. eigenvalues --   -0.11346  -0.09364  -0.09013  -0.07960  -0.06477
 Alpha virt. eigenvalues --   -0.06048  -0.05840  -0.05728  -0.04849  -0.02816
 Alpha virt. eigenvalues --   -0.02773  -0.00591  -0.00324   0.00009   0.00413

 Mulliken charges:
               1
     1  N   -0.713825
     2  C   -0.044626
     3  C    0.609705
     4  O   -0.570018
     5  C   -0.433771
     6  C    0.213859
     7  C   -0.172901
     8  C   -0.189039
     9  C   -0.128525
    10  C   -0.128129
    11  C   -0.125836
    12  H    0.336157
    13  H    0.146853
    14  H    0.135241
    15  H    0.189997
    16  H    0.117370
    17  H    0.138463
    18  H    0.140246
    19  H    0.119512
    20  H    0.138135
    21  H    0.308979
    22  N   -0.629858
    23  C   -0.014953
    24  C    0.625824
    25  O   -0.533013
    26  C   -0.302953
    27  C   -0.083734
    28  C   -0.443851
    29  C   -0.451670
    30  H    0.347993
    31  H    0.197395
    32  H    0.140940
    33  H    0.177653
    34  H    0.113406
    35  H    0.155562
    36  H    0.159697
    37  H    0.145729
    38  H    0.161535
    39  H    0.157069
    40  H    0.147700
    41  N   -0.612206
    42  C   -0.053281
    43  C    0.662957
    44  O   -0.546358
    45  C   -0.399097
    46  C    0.639532
    47  N   -0.756167
    48  O   -0.519953
    49  H    0.338427
    50  H    0.207495
    51  H    0.181958
    52  H    0.186377
    53  H    0.352561
    54  H    0.347066
    55  N   -0.613882
    56  C   -0.086926
    57  C    0.680061
    58  O   -0.544983
    59  C   -0.292604
    60  C   -0.289131
    61  C   -0.173398
    62  N   -0.590960
    63  C    0.776164
    64  N   -0.747622
    65  N   -0.769721
    66  O   -0.605678
    67  H    0.484637
    68  H    0.375642
    69  H    0.186492
    70  H    0.191627
    71  H    0.183639
    72  H    0.159695
    73  H    0.175882
    74  H    0.166860
    75  H    0.193039
    76  H    0.409168
    77  H    0.377531
    78  H    0.383217
    79  H    0.369122
    80  H    0.414500
 Sum of Mulliken charges =   1.00000

 Dipole moment (field-independent basis, Debye):
    X=            -17.0962    Y=             58.5789    Z=            -46.4332  Tot=             76.6799
 Quadrupole moment (field-independent basis, Debye-Ang):
   XX=           -138.5763   YY=            508.6045   ZZ=            374.8120
   XY=           -219.3294   XZ=            202.9607   YZ=           -570.6590

 Normal termination of Gaussian 16 at Sat Jun 11 21:07:41 2022.
