 Gaussian 16, Revision C.01,
 Gaussian 16:  ES64L-G16RevC.01  3-Jul-2019

 ----------------------------------------------------------------------
 # B3LYP/6-31G* empiricaldispersion=gd3 guess=read geom=check nosymm in
 tegral(ultrafinegrid)
 ----------------------------------------------------------------------

 ------------------------------------------------------
 Candidate Structure: Conf:211 Charge calc in gas phase
 ------------------------------------------------------
 Structure from the checkpoint file:  "conf-211.chk"
 Charge =  1 Multiplicity = 1

                          Input orientation:
 ---------------------------------------------------------------------
 Center     Atomic      Atomic             Coordinates (Angstroms)
 Number     Number       Type             X           Y           Z
 ---------------------------------------------------------------------
      1          7           0       -0.511508   10.093023   -8.065782
      2          6           0        0.123824   10.305404   -6.721643
      3          6           0       -0.765023    9.491686   -5.757522
      4          8           0       -1.427159    8.559636   -6.213774
      5          6           0        0.312434   11.807067   -6.418044
      6          6           0        0.852307   12.543798   -7.627025
      7          6           0        2.222216   12.558585   -7.920109
      8          6           0       -0.047285   13.125268   -8.531811
      9          6           0        2.683808   13.147118   -9.099041
     10          6           0        0.410844   13.691480   -9.721631
     11          6           0        1.778220   13.706505  -10.004799
     12          1           0        0.115981   10.344298   -8.833322
     13          1           0        1.103767    9.816549   -6.774774
     14          1           0        1.008798   11.888374   -5.574402
     15          1           0       -0.648977   12.229139   -6.120321
     16          1           0        2.930682   12.116062   -7.222418
     17          1           0       -1.108175   13.112398   -8.302910
     18          1           0        3.748782   13.164072   -9.312496
     19          1           0       -0.309477   14.092406  -10.427514
     20          1           0        2.139545   14.149745  -10.928333
     21          1           0       -1.400241   10.633137   -8.256967
     22          7           0       -0.796937    9.845478   -4.454714
     23          6           0       -1.766120    9.213644   -3.541531
     24          6           0       -3.185774    9.284473   -4.147954
     25          8           0       -3.979384    8.358842   -4.040259
     26          6           0       -1.712052    9.868734   -2.154923
     27          6           0       -0.356591    9.778531   -1.423659
     28          6           0       -0.459163   10.491864   -0.067518
     29          6           0        0.114171    8.328360   -1.248467
     30          1           0       -0.267186   10.643204   -4.130854
     31          1           0       -1.545057    8.146168   -3.475584
     32          1           0       -2.013683   10.921992   -2.247834
     33          1           0       -2.481737    9.379855   -1.544996
     34          1           0        0.402812   10.311252   -2.019363
     35          1           0       -1.188636    9.989259    0.579528
     36          1           0        0.505444   10.487212    0.451072
     37          1           0       -0.776011   11.535135   -0.182868
     38          1           0       -0.634382    7.740876   -0.702341
     39          1           0        0.297452    7.832164   -2.207925
     40          1           0        1.047635    8.292544   -0.676839
     41          7           0       -3.473363   10.443484   -4.811244
     42          6           0       -4.372483   10.377405   -5.946837
     43          6           0       -3.904941   11.439414   -6.958415
     44          8           0       -2.808367   12.005957   -6.801584
     45          6           0       -5.865906   10.467453   -5.539489
     46          6           0       -6.664665    9.559224   -6.460986
     47          7           0       -6.906698    8.321408   -5.970287
     48          8           0       -6.991867    9.916850   -7.596783
     49          1           0       -2.719821   11.104994   -4.965868
     50          1           0       -4.211746    9.405026   -6.436391
     51          1           0       -5.947845   10.150721   -4.498801
     52          1           0       -6.245359   11.489098   -5.625272
     53          1           0       -7.288688    7.626299   -6.598582
     54          1           0       -6.417953    8.000634   -5.142693
     55          7           0       -4.721898   11.675592   -7.991475
     56          6           0       -4.317746   12.526375   -9.104661
     57          6           0       -3.051986   11.983795   -9.849749
     58          8           0       -2.667943   12.692887  -10.838234
     59          6           0       -4.201268   14.024870   -8.674836
     60          6           0       -5.302952   14.942698   -9.251880
     61          6           0       -4.959200   15.557875  -10.621611
     62          7           0       -4.417976   14.561189  -11.545235
     63          6           0       -4.995017   14.002697  -12.597570
     64          7           0       -6.025327   14.569939  -13.259299
     65          7           0       -4.523899   12.811346  -13.023277
     66          8           0       -2.542209   10.908426   -9.482907
     67          1           0       -0.795118    9.105719   -8.129343
     68          1           0       -5.589529   11.133201   -8.058833
     69          1           0       -5.126994   12.436819   -9.838184
     70          1           0       -3.211814   14.413755   -8.941483
     71          1           0       -4.248084   14.058499   -7.585156
     72          1           0       -6.246031   14.385650   -9.323413
     73          1           0       -5.487933   15.779287   -8.567626
     74          1           0       -5.839120   16.047033  -11.051100
     75          1           0       -4.192970   16.331308  -10.499813
     76          1           0       -3.607603   13.992487  -11.186256
     77          1           0       -6.600384   14.019133  -13.879158
     78          1           0       -6.357981   15.488881  -13.012851
     79          1           0       -4.619077   12.553024  -13.995316
     80          1           0       -3.736953   12.420998  -12.496515
 ---------------------------------------------------------------------

 SCF Done:  E(RB3LYP) =  -1866.74581937     A.U. after    2 cycles

 Alpha  occ. eigenvalues --  -19.23450 -19.21412 -19.20240 -19.19874 -19.19162
 Alpha  occ. eigenvalues --  -19.18437 -14.53415 -14.49649 -14.47744 -14.47704
 Alpha  occ. eigenvalues --  -14.47257 -14.44224 -14.43514 -14.43419 -10.44968
 Alpha  occ. eigenvalues --  -10.40709 -10.38022 -10.37259 -10.37070 -10.36925
 Alpha  occ. eigenvalues --  -10.36874 -10.33821 -10.32515 -10.32482 -10.31632
 Alpha  occ. eigenvalues --  -10.30319 -10.28867 -10.28709 -10.27923 -10.27762
 Alpha  occ. eigenvalues --  -10.27730 -10.27594 -10.27466 -10.27235 -10.26991
 Alpha  occ. eigenvalues --  -10.26932 -10.26866 -10.24701 -10.24577  -1.15924
 Alpha  occ. eigenvalues --   -1.13589  -1.13231  -1.12018  -1.11579  -1.11330
 Alpha  occ. eigenvalues --   -1.08643  -1.03998  -1.03742  -1.02526  -1.01478
 Alpha  occ. eigenvalues --   -1.01066  -1.00622  -0.98437  -0.94315  -0.90515
 Alpha  occ. eigenvalues --   -0.89408  -0.88878  -0.86887  -0.84359  -0.83276
 Alpha  occ. eigenvalues --   -0.82637  -0.82162  -0.78235  -0.76408  -0.76288
 Alpha  occ. eigenvalues --   -0.75684  -0.75051  -0.73336  -0.70911  -0.70577
 Alpha  occ. eigenvalues --   -0.70361  -0.69047  -0.68715  -0.67649  -0.67130
 Alpha  occ. eigenvalues --   -0.66894  -0.66276  -0.65679  -0.65243  -0.64698
 Alpha  occ. eigenvalues --   -0.63713  -0.62634  -0.62258  -0.61516  -0.61472
 Alpha  occ. eigenvalues --   -0.59963  -0.59731  -0.59433  -0.59295  -0.57889
 Alpha  occ. eigenvalues --   -0.57592  -0.56363  -0.55923  -0.55019  -0.54506
 Alpha  occ. eigenvalues --   -0.54135  -0.53872  -0.53605  -0.53485  -0.53089
 Alpha  occ. eigenvalues --   -0.52826  -0.52079  -0.51825  -0.51537  -0.51303
 Alpha  occ. eigenvalues --   -0.51073  -0.50218  -0.50078  -0.49687  -0.49388
 Alpha  occ. eigenvalues --   -0.49066  -0.48912  -0.48716  -0.47564  -0.47224
 Alpha  occ. eigenvalues --   -0.46905  -0.46723  -0.46253  -0.46062  -0.45485
 Alpha  occ. eigenvalues --   -0.45281  -0.44780  -0.44690  -0.44294  -0.44084
 Alpha  occ. eigenvalues --   -0.43365  -0.43073  -0.42583  -0.42084  -0.40847
 Alpha  occ. eigenvalues --   -0.40705  -0.40450  -0.40228  -0.37885  -0.37533
 Alpha  occ. eigenvalues --   -0.37430  -0.36636  -0.35808  -0.34995  -0.34780
 Alpha  occ. eigenvalues --   -0.34204  -0.33699  -0.33335  -0.33018  -0.32951
 Alpha  occ. eigenvalues --   -0.32703  -0.31985
 Alpha virt. eigenvalues --   -0.10302  -0.09370  -0.08739  -0.08530  -0.07361
 Alpha virt. eigenvalues --   -0.06536  -0.06066  -0.05544  -0.04760  -0.03662
 Alpha virt. eigenvalues --   -0.02554  -0.01925   0.00193   0.00617   0.00860

 Mulliken charges:
               1
     1  N   -0.766019
     2  C   -0.096900
     3  C    0.656094
     4  O   -0.524273
     5  C   -0.397426
     6  C    0.114956
     7  C   -0.189615
     8  C   -0.212190
     9  C   -0.127641
    10  C   -0.124628
    11  C   -0.130078
    12  H    0.404439
    13  H    0.209766
    14  H    0.164011
    15  H    0.216434
    16  H    0.133163
    17  H    0.177101
    18  H    0.151859
    19  H    0.153192
    20  H    0.149167
    21  H    0.474120
    22  N   -0.646368
    23  C   -0.024684
    24  C    0.611142
    25  O   -0.523932
    26  C   -0.308583
    27  C   -0.080670
    28  C   -0.443928
    29  C   -0.451857
    30  H    0.352788
    31  H    0.203561
    32  H    0.144316
    33  H    0.179128
    34  H    0.109878
    35  H    0.156403
    36  H    0.158921
    37  H    0.145912
    38  H    0.158231
    39  H    0.147370
    40  H    0.160669
    41  N   -0.607980
    42  C   -0.051597
    43  C    0.626708
    44  O   -0.589765
    45  C   -0.368840
    46  C    0.581698
    47  N   -0.722384
    48  O   -0.524507
    49  H    0.344227
    50  H    0.205906
    51  H    0.194507
    52  H    0.179313
    53  H    0.352913
    54  H    0.372618
    55  N   -0.620783
    56  C   -0.064378
    57  C    0.631617
    58  O   -0.614120
    59  C   -0.292497
    60  C   -0.275807
    61  C   -0.165264
    62  N   -0.614787
    63  C    0.773259
    64  N   -0.760220
    65  N   -0.778087
    66  O   -0.597716
    67  H    0.409592
    68  H    0.391947
    69  H    0.157043
    70  H    0.163812
    71  H    0.179127
    72  H    0.156332
    73  H    0.165884
    74  H    0.151159
    75  H    0.188774
    76  H    0.420707
    77  H    0.375082
    78  H    0.376607
    79  H    0.360086
    80  H    0.405987
 Sum of Mulliken charges =   1.00000

 Dipole moment (field-independent basis, Debye):
    X=            -13.8219    Y=             60.5292    Z=            -43.2412  Tot=             75.6613
 Quadrupole moment (field-independent basis, Debye-Ang):
   XX=           -123.1840   YY=            564.0173   ZZ=            262.7175
   XY=           -203.1413   XZ=            172.8824   YZ=           -581.6674

 Normal termination of Gaussian 16 at Sat Jun 11 21:07:43 2022.
