 Gaussian 16, Revision C.01,
 Gaussian 16:  ES64L-G16RevC.01  3-Jul-2019

 ----------------------------------------------------------------------
 # B3LYP/6-31G* empiricaldispersion=gd3 guess=read geom=check nosymm in
 tegral(ultrafinegrid)
 ----------------------------------------------------------------------

 ------------------------------------------------------
 Candidate Structure: Conf:472 Charge calc in gas phase
 ------------------------------------------------------
 Structure from the checkpoint file:  "conf-472.chk"
 Charge =  1 Multiplicity = 1

                          Input orientation:
 ---------------------------------------------------------------------
 Center     Atomic      Atomic             Coordinates (Angstroms)
 Number     Number       Type             X           Y           Z
 ---------------------------------------------------------------------
      1          7           0       -1.539851    8.886251   -7.298540
      2          6           0       -2.711051    8.774073   -8.188254
      3          6           0       -2.357475    9.539573   -9.500783
      4          8           0       -1.185650    9.578931   -9.868935
      5          6           0       -3.988130    9.290272   -7.493259
      6          6           0       -4.480796    8.525415   -6.274465
      7          6           0       -3.627080    8.102294   -5.238951
      8          6           0       -5.857209    8.286053   -6.133332
      9          6           0       -4.140198    7.454229   -4.110617
     10          6           0       -6.372010    7.646868   -5.002298
     11          6           0       -5.512692    7.226500   -3.983009
     12          1           0       -1.404007    9.887483   -7.160027
     13          1           0       -2.843629    7.715381   -8.445307
     14          1           0       -4.809606    9.288349   -8.219740
     15          1           0       -3.815871   10.338010   -7.215935
     16          1           0       -2.562675    8.272170   -5.341078
     17          1           0       -6.538137    8.598873   -6.921862
     18          1           0       -3.459630    7.125236   -3.329890
     19          1           0       -7.440150    7.458972   -4.929382
     20          1           0       -5.906185    6.713847   -3.109621
     21          1           0       -0.733606    8.597988   -7.855573
     22          7           0       -3.310985   10.250628  -10.170570
     23          6           0       -2.910170   11.184713  -11.229892
     24          6           0       -1.843452   12.163596  -10.694693
     25          8           0       -0.913579   12.565687  -11.384812
     26          6           0       -4.150115   11.916513  -11.770490
     27          6           0       -3.865480   12.996124  -12.833349
     28          6           0       -3.085074   12.441475  -14.033762
     29          6           0       -5.188935   13.634207  -13.278486
     30          1           0       -4.281203   10.216671   -9.895407
     31          1           0       -2.408921   10.630175  -12.025996
     32          1           0       -4.826993   11.162466  -12.197250
     33          1           0       -4.678945   12.380530  -10.924480
     34          1           0       -3.250914   13.777109  -12.364292
     35          1           0       -2.987169   13.206395  -14.811900
     36          1           0       -2.076471   12.131277  -13.745861
     37          1           0       -3.605286   11.582185  -14.477246
     38          1           0       -5.008771   14.447869  -13.989177
     39          1           0       -5.831483   12.895829  -13.775105
     40          1           0       -5.746100   14.047206  -12.428555
     41          7           0       -2.027243   12.571009   -9.399131
     42          6           0       -0.857097   12.960320   -8.638362
     43          6           0       -1.128565   12.641727   -7.164534
     44          8           0       -2.103620   11.946114   -6.831917
     45          6           0       -0.422070   14.423823   -8.912595
     46          6           0        1.095330   14.491142   -8.842058
     47          7           0        1.726886   14.430295  -10.034175
     48          8           0        1.689111   14.523710   -7.757724
     49          1           0       -2.712491   12.066187   -8.848752
     50          1           0       -0.029275   12.299363   -8.940195
     51          1           0       -0.789491   14.697942   -9.901772
     52          1           0       -0.846200   15.113452   -8.177556
     53          1           0        2.732636   14.317600  -10.038214
     54          1           0        1.212045   14.174239  -10.868386
     55          7           0       -0.233370   13.077917   -6.260807
     56          6           0       -0.390867   12.700767   -4.859530
     57          6           0       -0.640922   11.183300   -4.751761
     58          8           0       -1.477307   10.645405   -4.041249
     59          6           0       -1.498342   13.528954   -4.178947
     60          6           0       -1.605102   13.358703   -2.643453
     61          6           0       -3.050938   13.152770   -2.170351
     62          7           0       -3.575242   11.912858   -2.756739
     63          6           0       -4.854163   11.583286   -2.881821
     64          7           0       -5.807583   12.257055   -2.209358
     65          7           0       -5.214504   10.594295   -3.714060
     66          8           0        0.217811   10.479123   -5.488368
     67          1           0       -0.058303    9.538729   -5.450633
     68          1           0        0.570382   13.642453   -6.572909
     69          1           0        0.574414   12.887102   -4.373507
     70          1           0       -2.439632   13.261580   -4.668850
     71          1           0       -1.305461   14.577398   -4.424471
     72          1           0       -1.006879   12.508475   -2.297696
     73          1           0       -1.208793   14.240435   -2.130462
     74          1           0       -3.082684   13.095248   -1.074674
     75          1           0       -3.679363   13.994655   -2.489034
     76          1           0       -2.875653   11.323076   -3.226401
     77          1           0       -6.785603   12.118683   -2.415361
     78          1           0       -5.571264   12.894819   -1.464787
     79          1           0       -6.068399   10.072470   -3.569751
     80          1           0       -4.506618   10.084707   -4.236732
 ---------------------------------------------------------------------

 SCF Done:  E(RB3LYP) =  -1866.74021153     A.U. after    2 cycles

 Alpha  occ. eigenvalues --  -19.30744 -19.26370 -19.23402 -19.20617 -19.20059
 Alpha  occ. eigenvalues --  -19.19988 -14.51577 -14.49863 -14.49783 -14.46486
 Alpha  occ. eigenvalues --  -14.45129 -14.44138 -14.43636 -14.40010 -10.47031
 Alpha  occ. eigenvalues --  -10.44430 -10.39920 -10.37969 -10.37005 -10.36776
 Alpha  occ. eigenvalues --  -10.35752 -10.35704 -10.33448 -10.31493 -10.31281
 Alpha  occ. eigenvalues --  -10.30993 -10.30142 -10.29400 -10.28729 -10.28562
 Alpha  occ. eigenvalues --  -10.28487 -10.28386 -10.28352 -10.28273 -10.27428
 Alpha  occ. eigenvalues --  -10.26996 -10.25788 -10.23581 -10.22884  -1.22488
 Alpha  occ. eigenvalues --   -1.15596  -1.15174  -1.13316  -1.12563  -1.12066
 Alpha  occ. eigenvalues --   -1.11391  -1.04910  -1.03750  -1.03473  -1.01802
 Alpha  occ. eigenvalues --   -1.00252  -0.99085  -0.97673  -0.94691  -0.91928
 Alpha  occ. eigenvalues --   -0.88836  -0.88100  -0.86941  -0.85756  -0.83583
 Alpha  occ. eigenvalues --   -0.82648  -0.80799  -0.80082  -0.78090  -0.77373
 Alpha  occ. eigenvalues --   -0.74449  -0.74275  -0.73687  -0.73179  -0.72359
 Alpha  occ. eigenvalues --   -0.71062  -0.69623  -0.69266  -0.68263  -0.67991
 Alpha  occ. eigenvalues --   -0.67306  -0.66863  -0.66074  -0.65031  -0.64651
 Alpha  occ. eigenvalues --   -0.63379  -0.62716  -0.62191  -0.61860  -0.61241
 Alpha  occ. eigenvalues --   -0.60733  -0.60000  -0.59837  -0.59316  -0.58204
 Alpha  occ. eigenvalues --   -0.57778  -0.56771  -0.56365  -0.55901  -0.55528
 Alpha  occ. eigenvalues --   -0.55374  -0.54742  -0.54273  -0.53971  -0.53662
 Alpha  occ. eigenvalues --   -0.53523  -0.53000  -0.52329  -0.52046  -0.51209
 Alpha  occ. eigenvalues --   -0.50920  -0.50848  -0.50260  -0.50086  -0.49773
 Alpha  occ. eigenvalues --   -0.49504  -0.48868  -0.48459  -0.48182  -0.48112
 Alpha  occ. eigenvalues --   -0.47150  -0.46710  -0.46453  -0.46124  -0.45890
 Alpha  occ. eigenvalues --   -0.45763  -0.45624  -0.44973  -0.44340  -0.43765
 Alpha  occ. eigenvalues --   -0.43561  -0.43425  -0.43179  -0.42746  -0.42504
 Alpha  occ. eigenvalues --   -0.42149  -0.40388  -0.39702  -0.39685  -0.39174
 Alpha  occ. eigenvalues --   -0.38943  -0.37483  -0.36726  -0.36000  -0.35647
 Alpha  occ. eigenvalues --   -0.34731  -0.34661  -0.34375  -0.33915  -0.33804
 Alpha  occ. eigenvalues --   -0.32734  -0.32425
 Alpha virt. eigenvalues --   -0.11371  -0.11155  -0.09978  -0.09700  -0.08873
 Alpha virt. eigenvalues --   -0.07296  -0.06803  -0.06423  -0.05566  -0.03125
 Alpha virt. eigenvalues --   -0.02342  -0.01826  -0.01191  -0.00798   0.00094

 Mulliken charges:
               1
     1  N   -0.764902
     2  C   -0.067647
     3  C    0.595990
     4  O   -0.515475
     5  C   -0.387582
     6  C    0.146455
     7  C   -0.215730
     8  C   -0.189686
     9  C   -0.134449
    10  C   -0.158266
    11  C   -0.146846
    12  H    0.331485
    13  H    0.181368
    14  H    0.136560
    15  H    0.190058
    16  H    0.184194
    17  H    0.137070
    18  H    0.151200
    19  H    0.150852
    20  H    0.151250
    21  H    0.329452
    22  N   -0.658121
    23  C   -0.006786
    24  C    0.630849
    25  O   -0.536587
    26  C   -0.305221
    27  C   -0.076769
    28  C   -0.461287
    29  C   -0.444883
    30  H    0.338789
    31  H    0.202852
    32  H    0.152959
    33  H    0.130796
    34  H    0.139903
    35  H    0.153193
    36  H    0.174515
    37  H    0.140359
    38  H    0.157048
    39  H    0.146790
    40  H    0.137531
    41  N   -0.614838
    42  C   -0.040079
    43  C    0.615454
    44  O   -0.577159
    45  C   -0.371888
    46  C    0.588296
    47  N   -0.719837
    48  O   -0.528678
    49  H    0.347952
    50  H    0.212850
    51  H    0.199764
    52  H    0.176797
    53  H    0.357403
    54  H    0.375930
    55  N   -0.619684
    56  C   -0.042663
    57  C    0.633893
    58  O   -0.514292
    59  C   -0.283623
    60  C   -0.316663
    61  C   -0.156206
    62  N   -0.630335
    63  C    0.798465
    64  N   -0.762328
    65  N   -0.774222
    66  O   -0.549816
    67  H    0.443423
    68  H    0.402401
    69  H    0.201047
    70  H    0.178090
    71  H    0.174500
    72  H    0.176808
    73  H    0.180924
    74  H    0.179923
    75  H    0.176423
    76  H    0.430722
    77  H    0.379090
    78  H    0.384079
    79  H    0.367495
    80  H    0.399301
 Sum of Mulliken charges =   1.00000

 Dipole moment (field-independent basis, Debye):
    X=            -20.2938    Y=             57.6722    Z=            -21.8161  Tot=             64.9142
 Quadrupole moment (field-independent basis, Debye-Ang):
   XX=           -104.6803   YY=            482.1525   ZZ=            -67.8999
   XY=           -228.6565   XZ=             82.9190   YZ=           -265.6335

 Normal termination of Gaussian 16 at Sat Jun 11 21:07:22 2022.
