 Gaussian 16, Revision C.01,
 Gaussian 16:  ES64L-G16RevC.01  3-Jul-2019

 ----------------------------------------------------------------------
 # B3LYP/6-31G* empiricaldispersion=gd3 guess=read geom=check nosymm in
 tegral(ultrafinegrid)
 ----------------------------------------------------------------------

 ------------------------------------------------------
 Candidate Structure: Conf:123 Charge calc in gas phase
 ------------------------------------------------------
 Structure from the checkpoint file:  "conf-123.chk"
 Charge =  1 Multiplicity = 1

                          Input orientation:
 ---------------------------------------------------------------------
 Center     Atomic      Atomic             Coordinates (Angstroms)
 Number     Number       Type             X           Y           Z
 ---------------------------------------------------------------------
      1          7           0       -2.034490    9.966530   -8.503278
      2          6           0       -1.863828    8.851383   -7.520353
      3          6           0       -3.217248    8.819637   -6.770765
      4          8           0       -4.241435    9.072699   -7.397080
      5          6           0       -0.601866    9.106437   -6.673622
      6          6           0        0.635807    9.296378   -7.527299
      7          6           0        1.412230    8.195679   -7.912791
      8          6           0        0.983527   10.574470   -7.989561
      9          6           0        2.520422    8.366480   -8.742683
     10          6           0        2.087415   10.742017   -8.827840
     11          6           0        2.859319    9.641287   -9.203000
     12          1           0       -1.261575   10.081745   -9.166242
     13          1           0       -1.758164    7.922423   -8.090577
     14          1           0       -0.463401    8.246625   -6.007378
     15          1           0       -0.774483    9.992853   -6.053164
     16          1           0        1.154570    7.201211   -7.553941
     17          1           0        0.382235   11.437747   -7.715560
     18          1           0        3.120075    7.506483   -9.026702
     19          1           0        2.342067   11.736336   -9.183051
     20          1           0        3.722583    9.774125   -9.848739
     21          1           0       -2.090036   10.865126   -7.971497
     22          7           0       -3.208805    8.567899   -5.440490
     23          6           0       -4.440610    8.701191   -4.651998
     24          6           0       -5.020718   10.131510   -4.731804
     25          8           0       -6.220630   10.326483   -4.634350
     26          6           0       -4.198267    8.295938   -3.191390
     27          6           0       -3.734056    6.842032   -2.969134
     28          6           0       -3.510535    6.599693   -1.469231
     29          6           0       -4.722933    5.821786   -3.549266
     30          1           0       -2.341319    8.377772   -4.959405
     31          1           0       -5.211385    8.072301   -5.102495
     32          1           0       -3.468825    8.989606   -2.747812
     33          1           0       -5.143544    8.458807   -2.659840
     34          1           0       -2.765361    6.699654   -3.475321
     35          1           0       -4.451284    6.708636   -0.915477
     36          1           0       -3.132161    5.587991   -1.287772
     37          1           0       -2.789640    7.310701   -1.048327
     38          1           0       -5.720661    5.957805   -3.113669
     39          1           0       -4.816578    5.906779   -4.637503
     40          1           0       -4.398035    4.799821   -3.326339
     41          7           0       -4.098934   11.137824   -4.871098
     42          6           0       -4.483182   12.393819   -5.489250
     43          6           0       -3.453987   12.662021   -6.616756
     44          8           0       -2.427834   11.949611   -6.695442
     45          6           0       -4.601787   13.534880   -4.449768
     46          6           0       -5.549909   14.651443   -4.882281
     47          7           0       -6.127279   15.349666   -3.877750
     48          8           0       -5.767775   14.926272   -6.066053
     49          1           0       -3.150450   10.867964   -5.103762
     50          1           0       -5.467891   12.253561   -5.948498
     51          1           0       -4.958848   13.082619   -3.519413
     52          1           0       -3.618275   13.972349   -4.233626
     53          1           0       -6.783106   16.081252   -4.118375
     54          1           0       -6.054507   15.071438   -2.910454
     55          7           0       -3.756683   13.639547   -7.466092
     56          6           0       -2.993360   14.012883   -8.664784
     57          6           0       -2.445896   12.739763   -9.380049
     58          8           0       -1.197144   12.546224   -9.405270
     59          6           0       -1.934807   15.094976   -8.381406
     60          6           0       -1.623801   16.027012   -9.574331
     61          6           0       -0.689889   15.498793  -10.678073
     62          7           0       -1.213707   14.347888  -11.431447
     63          6           0       -2.223228   14.374678  -12.304018
     64          7           0       -2.457178   15.484490  -13.037082
     65          7           0       -2.996032   13.291940  -12.457575
     66          8           0       -3.313453   12.020093   -9.947868
     67          1           0       -2.925412    9.909549   -9.012999
     68          1           0       -4.594468   14.184002   -7.228278
     69          1           0       -3.749474   14.421043   -9.345457
     70          1           0       -1.023411   14.608932   -8.018457
     71          1           0       -2.316907   15.727603   -7.571756
     72          1           0       -2.564134   16.361802  -10.035204
     73          1           0       -1.141025   16.931693   -9.183496
     74          1           0       -0.438046   16.310570  -11.369290
     75          1           0        0.252223   15.154642  -10.244422
     76          1           0       -1.059089   13.458289  -10.938172
     77          1           0       -3.260156   15.543896  -13.645217
     78          1           0       -1.730569   16.172524  -13.167664
     79          1           0       -3.652419   13.239422  -13.223612
     80          1           0       -3.124191   12.638258  -11.664203
 ---------------------------------------------------------------------

 SCF Done:  E(RB3LYP) =  -1866.74465096     A.U. after    2 cycles

 Alpha  occ. eigenvalues --  -19.22460 -19.22226 -19.21333 -19.19101 -19.18564
 Alpha  occ. eigenvalues --  -19.18423 -14.52047 -14.50096 -14.48085 -14.47716
 Alpha  occ. eigenvalues --  -14.46902 -14.45038 -14.44997 -14.43217 -10.45382
 Alpha  occ. eigenvalues --  -10.39725 -10.38901 -10.38840 -10.36716 -10.36281
 Alpha  occ. eigenvalues --  -10.36032 -10.33605 -10.32551 -10.31726 -10.31460
 Alpha  occ. eigenvalues --  -10.30514 -10.29226 -10.28895 -10.28694 -10.27450
 Alpha  occ. eigenvalues --  -10.27348 -10.27105 -10.27097 -10.27086 -10.27033
 Alpha  occ. eigenvalues --  -10.26941 -10.26908 -10.24195 -10.24176  -1.14884
 Alpha  occ. eigenvalues --   -1.14013  -1.13746  -1.12844  -1.11950  -1.11037
 Alpha  occ. eigenvalues --   -1.07706  -1.03535  -1.03190  -1.02649  -1.01884
 Alpha  occ. eigenvalues --   -1.01543  -1.00212  -0.99741  -0.94207  -0.89982
 Alpha  occ. eigenvalues --   -0.89297  -0.88438  -0.87051  -0.84040  -0.83670
 Alpha  occ. eigenvalues --   -0.82595  -0.81747  -0.78872  -0.76680  -0.76061
 Alpha  occ. eigenvalues --   -0.75219  -0.74929  -0.72843  -0.70948  -0.70130
 Alpha  occ. eigenvalues --   -0.69994  -0.69058  -0.68919  -0.67736  -0.67435
 Alpha  occ. eigenvalues --   -0.66927  -0.66646  -0.65897  -0.65466  -0.64163
 Alpha  occ. eigenvalues --   -0.63902  -0.63083  -0.62730  -0.62242  -0.60969
 Alpha  occ. eigenvalues --   -0.59871  -0.59305  -0.58929  -0.58393  -0.57640
 Alpha  occ. eigenvalues --   -0.57055  -0.56359  -0.55542  -0.55275  -0.54537
 Alpha  occ. eigenvalues --   -0.54319  -0.53981  -0.53609  -0.53494  -0.52999
 Alpha  occ. eigenvalues --   -0.52748  -0.52191  -0.51952  -0.51667  -0.51166
 Alpha  occ. eigenvalues --   -0.50485  -0.50264  -0.50133  -0.49623  -0.49214
 Alpha  occ. eigenvalues --   -0.49021  -0.48685  -0.48466  -0.47912  -0.47252
 Alpha  occ. eigenvalues --   -0.46853  -0.46506  -0.46195  -0.45723  -0.45562
 Alpha  occ. eigenvalues --   -0.45379  -0.44939  -0.44654  -0.44224  -0.43975
 Alpha  occ. eigenvalues --   -0.43214  -0.42994  -0.42659  -0.42218  -0.40757
 Alpha  occ. eigenvalues --   -0.40259  -0.40138  -0.39850  -0.37803  -0.37350
 Alpha  occ. eigenvalues --   -0.36732  -0.36348  -0.36266  -0.35835  -0.35247
 Alpha  occ. eigenvalues --   -0.34732  -0.33682  -0.33247  -0.32888  -0.32729
 Alpha  occ. eigenvalues --   -0.32154  -0.32076
 Alpha virt. eigenvalues --   -0.10270  -0.09345  -0.08779  -0.08528  -0.08063
 Alpha virt. eigenvalues --   -0.06897  -0.06535  -0.05651  -0.05318  -0.03013
 Alpha virt. eigenvalues --   -0.02712  -0.00653  -0.00361   0.00467   0.00570

 Mulliken charges:
               1
     1  N   -0.786775
     2  C   -0.087009
     3  C    0.639144
     4  O   -0.510710
     5  C   -0.404122
     6  C    0.133265
     7  C   -0.179568
     8  C   -0.206848
     9  C   -0.127616
    10  C   -0.128120
    11  C   -0.125444
    12  H    0.404450
    13  H    0.211095
    14  H    0.168755
    15  H    0.194317
    16  H    0.134101
    17  H    0.173604
    18  H    0.152448
    19  H    0.142899
    20  H    0.149781
    21  H    0.482524
    22  N   -0.650047
    23  C   -0.024131
    24  C    0.604548
    25  O   -0.503229
    26  C   -0.306025
    27  C   -0.077034
    28  C   -0.443493
    29  C   -0.451920
    30  H    0.350217
    31  H    0.205600
    32  H    0.137851
    33  H    0.180448
    34  H    0.108284
    35  H    0.155369
    36  H    0.157276
    37  H    0.143602
    38  H    0.158234
    39  H    0.148366
    40  H    0.158135
    41  N   -0.613184
    42  C   -0.056871
    43  C    0.620426
    44  O   -0.609769
    45  C   -0.377616
    46  C    0.631380
    47  N   -0.736493
    48  O   -0.532539
    49  H    0.343454
    50  H    0.218270
    51  H    0.191457
    52  H    0.189631
    53  H    0.361656
    54  H    0.356523
    55  N   -0.615328
    56  C    0.010119
    57  C    0.540079
    58  O   -0.609544
    59  C   -0.269060
    60  C   -0.280978
    61  C   -0.161550
    62  N   -0.603045
    63  C    0.775512
    64  N   -0.757651
    65  N   -0.779431
    66  O   -0.601390
    67  H    0.419127
    68  H    0.401201
    69  H    0.147276
    70  H    0.175799
    71  H    0.150533
    72  H    0.147809
    73  H    0.165752
    74  H    0.155138
    75  H    0.193125
    76  H    0.397770
    77  H    0.372304
    78  H    0.378164
    79  H    0.358094
    80  H    0.421633
 Sum of Mulliken charges =   1.00000

 Dipole moment (field-independent basis, Debye):
    X=             -9.0040    Y=             62.0806    Z=            -41.9455  Tot=             75.4619
 Quadrupole moment (field-independent basis, Debye-Ang):
   XX=           -203.0608   YY=            654.6093   ZZ=            247.2228
   XY=           -141.4069   XZ=             64.4942   YZ=           -578.9904

 Normal termination of Gaussian 16 at Sat Jun 11 21:07:40 2022.
