 Gaussian 16, Revision C.01,
 Gaussian 16:  ES64L-G16RevC.01  3-Jul-2019

 ----------------------------------------------------------------------
 # B3LYP/6-31G* empiricaldispersion=gd3 guess=read geom=check nosymm in
 tegral(ultrafinegrid)
 ----------------------------------------------------------------------

 ------------------------------------------------------
 Candidate Structure: Conf:879 Charge calc in gas phase
 ------------------------------------------------------
 Structure from the checkpoint file:  "conf-879.chk"
 Charge =  1 Multiplicity = 1

                          Input orientation:
 ---------------------------------------------------------------------
 Center     Atomic      Atomic             Coordinates (Angstroms)
 Number     Number       Type             X           Y           Z
 ---------------------------------------------------------------------
      1          7           0       -1.952101   13.262134   -6.803478
      2          6           0       -3.026881   13.786659   -5.937878
      3          6           0       -3.666118   12.574128   -5.226561
      4          8           0       -2.968330   11.818962   -4.563714
      5          6           0       -3.993032   14.734297   -6.688874
      6          6           0       -3.262016   15.905140   -7.309447
      7          6           0       -2.857106   16.988680   -6.517057
      8          6           0       -2.923269   15.903941   -8.669409
      9          6           0       -2.136811   18.046960   -7.070209
     10          6           0       -2.203085   16.963406   -9.227063
     11          6           0       -1.807531   18.037173   -8.428306
     12          1           0       -1.500244   14.035254   -7.291359
     13          1           0       -2.536405   14.356468   -5.140298
     14          1           0       -4.747325   15.104200   -5.982195
     15          1           0       -4.517377   14.170031   -7.471663
     16          1           0       -3.116202   17.006157   -5.460614
     17          1           0       -3.243249   15.076497   -9.299562
     18          1           0       -1.839788   18.883232   -6.443733
     19          1           0       -1.966013   16.955604  -10.287808
     20          1           0       -1.256320   18.867199   -8.861140
     21          1           0       -2.347177   12.650073   -7.521892
     22          7           0       -5.003664   12.362717   -5.409348
     23          6           0       -5.717704   11.306427   -4.682275
     24          6           0       -5.083223    9.925824   -4.909405
     25          8           0       -5.090952    9.074231   -4.031540
     26          6           0       -7.200679   11.329831   -5.096218
     27          6           0       -8.088617   10.248057   -4.450965
     28          6           0       -8.040606   10.291960   -2.917020
     29          6           0       -9.527109   10.398363   -4.966199
     30          1           0       -5.563152   13.053099   -5.888837
     31          1           0       -5.617420   11.480536   -3.607133
     32          1           0       -7.607950   12.319758   -4.839736
     33          1           0       -7.254978   11.234827   -6.190326
     34          1           0       -7.710533    9.267506   -4.769687
     35          1           0       -7.049067   10.021516   -2.543599
     36          1           0       -8.301150   11.291584   -2.543817
     37          1           0       -8.759712    9.583015   -2.491937
     38          1           0       -9.957711   11.357956   -4.651851
     39          1           0       -9.572914   10.352561   -6.061272
     40          1           0      -10.167114    9.602909   -4.569338
     41          7           0       -4.563271    9.701385   -6.156073
     42          6           0       -3.496354    8.724137   -6.282535
     43          6           0       -2.404996    9.374905   -7.152766
     44          8           0       -2.630308   10.395661   -7.820094
     45          6           0       -4.016259    7.366470   -6.805243
     46          6           0       -3.123366    6.188730   -6.419631
     47          7           0       -3.726170    4.975335   -6.430508
     48          8           0       -1.927965    6.309130   -6.138325
     49          1           0       -4.445053   10.503925   -6.765239
     50          1           0       -3.076509    8.554558   -5.285113
     51          1           0       -5.012847    7.225309   -6.374986
     52          1           0       -4.138294    7.382752   -7.896159
     53          1           0       -3.187381    4.173877   -6.129595
     54          1           0       -4.726559    4.871729   -6.515088
     55          7           0       -1.190951    8.801355   -7.081747
     56          6           0       -0.008174    9.409074   -7.672977
     57          6           0       -0.093744   10.938644   -7.477866
     58          8           0        0.070697   11.747454   -8.404697
     59          6           0        0.202294    8.978841   -9.137986
     60          6           0        1.645393    9.197135   -9.669322
     61          6           0        1.717186    9.948212  -11.008106
     62          7           0        1.225432   11.322500  -10.811070
     63          6           0        1.953364   12.433247  -10.904148
     64          7           0        2.932067   12.555156  -11.820727
     65          7           0        1.694622   13.449210  -10.065689
     66          8           0       -0.348008   11.284535   -6.251093
     67          1           0       -0.870485   12.192780   -6.263123
     68          1           0       -1.127744    7.911650   -6.578716
     69          1           0        0.842213    9.070563   -7.067479
     70          1           0       -0.545810    9.496829   -9.749840
     71          1           0       -0.048221    7.915851   -9.196814
     72          1           0        2.243892    9.756995   -8.939142
     73          1           0        2.144169    8.230636   -9.798386
     74          1           0        2.748246    9.980138  -11.373207
     75          1           0        1.103610    9.453695  -11.768683
     76          1           0        0.510122   11.386730  -10.072159
     77          1           0        3.592690   13.317359  -11.785474
     78          1           0        2.980315   11.927144  -12.609109
     79          1           0        1.966488   14.397218  -10.280689
     80          1           0        1.102176   13.269960   -9.256119
 ---------------------------------------------------------------------

 SCF Done:  E(RB3LYP) =  -1866.73821997     A.U. after    2 cycles

 Alpha  occ. eigenvalues --  -19.25424 -19.24237 -19.21073 -19.20503 -19.19344
 Alpha  occ. eigenvalues --  -19.17917 -14.51637 -14.50467 -14.49307 -14.44590
 Alpha  occ. eigenvalues --  -14.44165 -14.44121 -14.43349 -14.41843 -10.47110
 Alpha  occ. eigenvalues --  -10.41940 -10.37970 -10.37632 -10.36825 -10.35127
 Alpha  occ. eigenvalues --  -10.34992 -10.33659 -10.31955 -10.31165 -10.30365
 Alpha  occ. eigenvalues --  -10.30296 -10.29261 -10.28590 -10.28288 -10.28185
 Alpha  occ. eigenvalues --  -10.27409 -10.27318 -10.27113 -10.27040 -10.26981
 Alpha  occ. eigenvalues --  -10.26101 -10.24828 -10.22787 -10.21982  -1.18809
 Alpha  occ. eigenvalues --   -1.15592  -1.12749  -1.11959  -1.11672  -1.09909
 Alpha  occ. eigenvalues --   -1.09739  -1.04798  -1.03849  -1.01501  -1.00807
 Alpha  occ. eigenvalues --   -0.99761  -0.98931  -0.98746  -0.93732  -0.90854
 Alpha  occ. eigenvalues --   -0.87918  -0.86723  -0.86477  -0.84708  -0.82609
 Alpha  occ. eigenvalues --   -0.82145  -0.79797  -0.79472  -0.77703  -0.75754
 Alpha  occ. eigenvalues --   -0.73984  -0.73416  -0.72784  -0.72472  -0.71753
 Alpha  occ. eigenvalues --   -0.69741  -0.68841  -0.68753  -0.67509  -0.66995
 Alpha  occ. eigenvalues --   -0.66367  -0.65403  -0.64774  -0.64636  -0.64234
 Alpha  occ. eigenvalues --   -0.63239  -0.62356  -0.61945  -0.61170  -0.60820
 Alpha  occ. eigenvalues --   -0.59436  -0.59057  -0.58416  -0.57930  -0.57701
 Alpha  occ. eigenvalues --   -0.56483  -0.55841  -0.55361  -0.54920  -0.54539
 Alpha  occ. eigenvalues --   -0.54245  -0.53894  -0.53742  -0.53127  -0.52935
 Alpha  occ. eigenvalues --   -0.52205  -0.51779  -0.51218  -0.51039  -0.50687
 Alpha  occ. eigenvalues --   -0.50246  -0.49998  -0.49632  -0.48958  -0.48931
 Alpha  occ. eigenvalues --   -0.48537  -0.47793  -0.47769  -0.47193  -0.46892
 Alpha  occ. eigenvalues --   -0.46604  -0.45811  -0.45738  -0.45385  -0.45081
 Alpha  occ. eigenvalues --   -0.44484  -0.44279  -0.43963  -0.43878  -0.43048
 Alpha  occ. eigenvalues --   -0.42518  -0.42395  -0.42365  -0.42145  -0.41347
 Alpha  occ. eigenvalues --   -0.39749  -0.39605  -0.38796  -0.38261  -0.38171
 Alpha  occ. eigenvalues --   -0.37980  -0.36276  -0.35736  -0.35190  -0.34603
 Alpha  occ. eigenvalues --   -0.34447  -0.34218  -0.33557  -0.33251  -0.32380
 Alpha  occ. eigenvalues --   -0.31933  -0.30988
 Alpha virt. eigenvalues --   -0.11801  -0.09376  -0.08650  -0.08417  -0.07141
 Alpha virt. eigenvalues --   -0.06910  -0.06318  -0.05808  -0.04227  -0.03393
 Alpha virt. eigenvalues --   -0.01335  -0.00678  -0.00473   0.00235   0.00635

 Mulliken charges:
               1
     1  N   -0.799467
     2  C   -0.049306
     3  C    0.619612
     4  O   -0.501974
     5  C   -0.393544
     6  C    0.155135
     7  C   -0.176458
     8  C   -0.198765
     9  C   -0.127951
    10  C   -0.134074
    11  C   -0.130234
    12  H    0.332373
    13  H    0.186540
    14  H    0.165752
    15  H    0.151317
    16  H    0.141225
    17  H    0.128757
    18  H    0.152181
    19  H    0.135257
    20  H    0.145729
    21  H    0.359859
    22  N   -0.665519
    23  C   -0.007627
    24  C    0.629592
    25  O   -0.521805
    26  C   -0.306898
    27  C   -0.074772
    28  C   -0.460815
    29  C   -0.445142
    30  H    0.344671
    31  H    0.195302
    32  H    0.142452
    33  H    0.138706
    34  H    0.143934
    35  H    0.179054
    36  H    0.134466
    37  H    0.150869
    38  H    0.144097
    39  H    0.138245
    40  H    0.154685
    41  N   -0.613257
    42  C   -0.047816
    43  C    0.623256
    44  O   -0.580837
    45  C   -0.377550
    46  C    0.626656
    47  N   -0.737277
    48  O   -0.533341
    49  H    0.345001
    50  H    0.216643
    51  H    0.194547
    52  H    0.184471
    53  H    0.358955
    54  H    0.354151
    55  N   -0.614332
    56  C   -0.028559
    57  C    0.631163
    58  O   -0.578790
    59  C   -0.290595
    60  C   -0.287887
    61  C   -0.173348
    62  N   -0.599181
    63  C    0.777325
    64  N   -0.748927
    65  N   -0.772756
    66  O   -0.559945
    67  H    0.481497
    68  H    0.396568
    69  H    0.187599
    70  H    0.171426
    71  H    0.175285
    72  H    0.159867
    73  H    0.178485
    74  H    0.166202
    75  H    0.189974
    76  H    0.411570
    77  H    0.378289
    78  H    0.383438
    79  H    0.368120
    80  H    0.408454
 Sum of Mulliken charges =   1.00000

 Dipole moment (field-independent basis, Debye):
    X=             -1.0719    Y=             57.1941    Z=            -48.9989  Tot=             75.3207
 Quadrupole moment (field-independent basis, Debye-Ang):
   XX=           -148.5838   YY=            536.1075   ZZ=            273.3649
   XY=              6.9841   XZ=            -31.2995   YZ=           -578.3317

 Normal termination of Gaussian 16 at Sat Jun 11 21:07:15 2022.
