 Gaussian 16, Revision C.01,
 Gaussian 16:  ES64L-G16RevC.01  3-Jul-2019

 ----------------------------------------------------------------------
 # B3LYP/6-31G* empiricaldispersion=gd3 guess=read geom=check nosymm in
 tegral(ultrafinegrid)
 ----------------------------------------------------------------------

 ------------------------------------------------------
 Candidate Structure: Conf:549 Charge calc in gas phase
 ------------------------------------------------------
 Structure from the checkpoint file:  "conf-549.chk"
 Charge =  1 Multiplicity = 1

                          Input orientation:
 ---------------------------------------------------------------------
 Center     Atomic      Atomic             Coordinates (Angstroms)
 Number     Number       Type             X           Y           Z
 ---------------------------------------------------------------------
      1          7           0       -3.989297   10.368752   -8.093956
      2          6           0       -3.225262    9.177275   -8.513874
      3          6           0       -2.033180    9.039712   -7.541895
      4          8           0       -2.234298    8.965564   -6.337477
      5          6           0       -2.887065    9.183309  -10.024126
      6          6           0       -4.132777    9.279308  -10.878163
      7          6           0       -4.937724    8.150423  -11.086961
      8          6           0       -4.538507   10.504083  -11.425409
      9          6           0       -6.115338    8.241372  -11.828373
     10          6           0       -5.716945   10.598284  -12.170105
     11          6           0       -6.508534    9.466995  -12.372626
     12          1           0       -4.790576   10.494712   -8.712021
     13          1           0       -3.861002    8.308747   -8.306863
     14          1           0       -2.343063    8.261786  -10.269186
     15          1           0       -2.223632   10.030738  -10.242782
     16          1           0       -4.633931    7.191691  -10.672160
     17          1           0       -3.916429   11.385562  -11.283490
     18          1           0       -6.721796    7.354501  -11.988745
     19          1           0       -6.006381   11.551933  -12.603951
     20          1           0       -7.420025    9.534941  -12.959732
     21          1           0       -3.410552   11.207520   -8.185731
     22          7           0       -0.774681    9.055215   -8.073870
     23          6           0        0.410917    8.816787   -7.242197
     24          6           0        0.487525    9.795997   -6.060885
     25          8           0        0.968588    9.457011   -4.988662
     26          6           0        1.667010    8.891320   -8.129821
     27          6           0        3.010560    8.705228   -7.398199
     28          6           0        3.075273    7.380991   -6.623954
     29          6           0        4.159320    8.813205   -8.411106
     30          1           0       -0.649474    9.029730   -9.075494
     31          1           0        0.329380    7.830741   -6.776000
     32          1           0        1.578346    8.117216   -8.907310
     33          1           0        1.668669    9.863155   -8.644201
     34          1           0        3.115060    9.522697   -6.672348
     35          1           0        2.863044    6.528851   -7.283661
     36          1           0        4.076432    7.232430   -6.204396
     37          1           0        2.363860    7.372170   -5.793579
     38          1           0        4.130256    9.763716   -8.957980
     39          1           0        5.129473    8.744815   -7.907141
     40          1           0        4.110360    8.000471   -9.147401
     41          7           0        0.034418   11.065357   -6.302187
     42          6           0       -0.452125   11.839411   -5.173750
     43          6           0       -1.785590   12.470582   -5.615645
     44          8           0       -2.123482   12.504757   -6.808417
     45          6           0        0.604269   12.846039   -4.665974
     46          6           0        0.406666   13.242916   -3.204343
     47          7           0        1.509222   13.720340   -2.578176
     48          8           0       -0.678872   13.165341   -2.622676
     49          1           0       -0.498182   11.218658   -7.151867
     50          1           0       -0.663925   11.142951   -4.355171
     51          1           0        1.579687   12.363800   -4.784893
     52          1           0        0.617699   13.752290   -5.285479
     53          1           0        1.437759   13.945059   -1.594520
     54          1           0        2.430166   13.657020   -2.986232
     55          7           0       -2.573602   12.912161   -4.619679
     56          6           0       -3.947006   13.337439   -4.844910
     57          6           0       -4.579126   12.411442   -5.906931
     58          8           0       -5.182036   12.840402   -6.903288
     59          6           0       -4.048700   14.837074   -5.186244
     60          6           0       -5.461496   15.447655   -4.976672
     61          6           0       -5.991833   16.238936   -6.182598
     62          7           0       -6.195833   15.312424   -7.309194
     63          6           0       -7.368207   14.983045   -7.847098
     64          7           0       -8.361325   15.883985   -7.969089
     65          7           0       -7.552123   13.725301   -8.278857
     66          8           0       -4.418531   11.148410   -5.645672
     67          1           0       -4.389791   10.622447   -6.551812
     68          1           0       -2.168953   12.922433   -3.678927
     69          1           0       -4.483549   13.139494   -3.908256
     70          1           0       -3.688638   14.972327   -6.213073
     71          1           0       -3.330589   15.358557   -4.547097
     72          1           0       -6.190871   14.660424   -4.746173
     73          1           0       -5.451483   16.119338   -4.111619
     74          1           0       -6.941131   16.723050   -5.933851
     75          1           0       -5.282954   17.017801   -6.483197
     76          1           0       -5.536929   14.520299   -7.296921
     77          1           0       -9.298561   15.602345   -8.215839
     78          1           0       -8.172616   16.872151   -7.890465
     79          1           0       -8.258009   13.497002   -8.963299
     80          1           0       -6.879403   13.013449   -7.997372
 ---------------------------------------------------------------------

 SCF Done:  E(RB3LYP) =  -1866.73821791     A.U. after    1 cycles

 Alpha  occ. eigenvalues --  -19.25422 -19.24241 -19.21077 -19.20501 -19.19346
 Alpha  occ. eigenvalues --  -19.17923 -14.51636 -14.50466 -14.49308 -14.44593
 Alpha  occ. eigenvalues --  -14.44158 -14.44119 -14.43351 -14.41842 -10.47110
 Alpha  occ. eigenvalues --  -10.41940 -10.37967 -10.37634 -10.36827 -10.35127
 Alpha  occ. eigenvalues --  -10.34995 -10.33659 -10.31956 -10.31167 -10.30364
 Alpha  occ. eigenvalues --  -10.30300 -10.29259 -10.28590 -10.28287 -10.28180
 Alpha  occ. eigenvalues --  -10.27406 -10.27316 -10.27112 -10.27040 -10.26980
 Alpha  occ. eigenvalues --  -10.26104 -10.24832 -10.22789 -10.21984  -1.18809
 Alpha  occ. eigenvalues --   -1.15592  -1.12750  -1.11956  -1.11674  -1.09909
 Alpha  occ. eigenvalues --   -1.09742  -1.04797  -1.03848  -1.01499  -1.00810
 Alpha  occ. eigenvalues --   -0.99761  -0.98929  -0.98747  -0.93731  -0.90852
 Alpha  occ. eigenvalues --   -0.87920  -0.86722  -0.86479  -0.84705  -0.82608
 Alpha  occ. eigenvalues --   -0.82147  -0.79797  -0.79473  -0.77702  -0.75754
 Alpha  occ. eigenvalues --   -0.73985  -0.73418  -0.72782  -0.72471  -0.71755
 Alpha  occ. eigenvalues --   -0.69738  -0.68839  -0.68752  -0.67511  -0.66997
 Alpha  occ. eigenvalues --   -0.66366  -0.65401  -0.64774  -0.64634  -0.64230
 Alpha  occ. eigenvalues --   -0.63238  -0.62359  -0.61945  -0.61172  -0.60820
 Alpha  occ. eigenvalues --   -0.59438  -0.59057  -0.58419  -0.57931  -0.57705
 Alpha  occ. eigenvalues --   -0.56484  -0.55839  -0.55361  -0.54919  -0.54539
 Alpha  occ. eigenvalues --   -0.54244  -0.53892  -0.53743  -0.53126  -0.52934
 Alpha  occ. eigenvalues --   -0.52206  -0.51778  -0.51220  -0.51038  -0.50689
 Alpha  occ. eigenvalues --   -0.50244  -0.49997  -0.49633  -0.48960  -0.48928
 Alpha  occ. eigenvalues --   -0.48540  -0.47792  -0.47768  -0.47194  -0.46893
 Alpha  occ. eigenvalues --   -0.46603  -0.45808  -0.45736  -0.45387  -0.45082
 Alpha  occ. eigenvalues --   -0.44487  -0.44282  -0.43963  -0.43880  -0.43050
 Alpha  occ. eigenvalues --   -0.42518  -0.42394  -0.42365  -0.42143  -0.41347
 Alpha  occ. eigenvalues --   -0.39749  -0.39604  -0.38799  -0.38264  -0.38173
 Alpha  occ. eigenvalues --   -0.37982  -0.36277  -0.35731  -0.35192  -0.34600
 Alpha  occ. eigenvalues --   -0.34453  -0.34216  -0.33558  -0.33250  -0.32382
 Alpha  occ. eigenvalues --   -0.31935  -0.30991
 Alpha virt. eigenvalues --   -0.11798  -0.09384  -0.08650  -0.08414  -0.07140
 Alpha virt. eigenvalues --   -0.06908  -0.06316  -0.05811  -0.04234  -0.03393
 Alpha virt. eigenvalues --   -0.01334  -0.00677  -0.00472   0.00239   0.00636

 Mulliken charges:
               1
     1  N   -0.799706
     2  C   -0.049243
     3  C    0.619581
     4  O   -0.502054
     5  C   -0.393528
     6  C    0.155101
     7  C   -0.176462
     8  C   -0.198737
     9  C   -0.127981
    10  C   -0.134075
    11  C   -0.130279
    12  H    0.332399
    13  H    0.186525
    14  H    0.165813
    15  H    0.151287
    16  H    0.141219
    17  H    0.128838
    18  H    0.152155
    19  H    0.135355
    20  H    0.145709
    21  H    0.360042
    22  N   -0.665479
    23  C   -0.007580
    24  C    0.629613
    25  O   -0.521989
    26  C   -0.306932
    27  C   -0.074779
    28  C   -0.460824
    29  C   -0.445139
    30  H    0.344703
    31  H    0.195324
    32  H    0.142524
    33  H    0.138707
    34  H    0.143869
    35  H    0.134496
    36  H    0.150849
    37  H    0.179060
    38  H    0.138270
    39  H    0.154676
    40  H    0.144112
    41  N   -0.613269
    42  C   -0.047776
    43  C    0.623098
    44  O   -0.580839
    45  C   -0.377440
    46  C    0.626835
    47  N   -0.737221
    48  O   -0.533419
    49  H    0.345004
    50  H    0.216703
    51  H    0.194519
    52  H    0.184521
    53  H    0.358977
    54  H    0.354222
    55  N   -0.614709
    56  C   -0.028438
    57  C    0.630992
    58  O   -0.578712
    59  C   -0.290486
    60  C   -0.287856
    61  C   -0.173376
    62  N   -0.599149
    63  C    0.777373
    64  N   -0.748944
    65  N   -0.772755
    66  O   -0.560099
    67  H    0.481466
    68  H    0.396752
    69  H    0.187584
    70  H    0.171415
    71  H    0.175298
    72  H    0.159813
    73  H    0.178479
    74  H    0.166161
    75  H    0.190014
    76  H    0.411561
    77  H    0.378288
    78  H    0.383430
    79  H    0.368129
    80  H    0.408417
 Sum of Mulliken charges =   1.00000

 Dipole moment (field-independent basis, Debye):
    X=            -24.7352    Y=             68.3855    Z=            -38.7289  Tot=             82.3914
 Quadrupole moment (field-independent basis, Debye-Ang):
   XX=              1.0899   YY=            782.7680   ZZ=            109.4553
   XY=           -369.8119   XZ=            222.1629   YZ=           -509.0407

 Normal termination of Gaussian 16 at Sat Jun 11 21:06:55 2022.
