 Gaussian 16, Revision C.01,
 Gaussian 16:  ES64L-G16RevC.01  3-Jul-2019

 ----------------------------------------------------------------------
 # B3LYP/6-31G* empiricaldispersion=gd3 guess=read geom=check nosymm in
 tegral(ultrafinegrid)
 ----------------------------------------------------------------------

 -----------------------------------------------------
 Candidate Structure: Conf:95 Charge calc in gas phase
 -----------------------------------------------------
 Structure from the checkpoint file:  "conf-95.chk"
 Charge =  1 Multiplicity = 1

                          Input orientation:
 ---------------------------------------------------------------------
 Center     Atomic      Atomic             Coordinates (Angstroms)
 Number     Number       Type             X           Y           Z
 ---------------------------------------------------------------------
      1          7           0       -2.111887    9.822721   -5.177679
      2          6           0       -3.472023    9.979997   -4.505148
      3          6           0       -4.432047    9.055884   -5.279949
      4          8           0       -4.840880    8.027240   -4.765523
      5          6           0       -3.882204   11.450841   -4.430105
      6          6           0       -2.946336   12.355649   -3.644059
      7          6           0       -2.026227   11.888344   -2.699269
      8          6           0       -3.028822   13.740245   -3.861736
      9          6           0       -1.207411   12.774989   -1.991229
     10          6           0       -2.228059   14.628180   -3.147401
     11          6           0       -1.307394   14.148330   -2.209961
     12          1           0       -2.162811    9.143307   -5.972428
     13          1           0       -3.397203    9.541141   -3.510186
     14          1           0       -4.883971   11.476410   -3.980963
     15          1           0       -3.973297   11.866901   -5.439348
     16          1           0       -1.947370   10.826415   -2.479425
     17          1           0       -3.729722   14.115200   -4.601211
     18          1           0       -0.507506   12.387704   -1.255818
     19          1           0       -2.322208   15.696791   -3.322307
     20          1           0       -0.688625   14.839593   -1.643852
     21          1           0       -1.411318    9.478798   -4.519383
     22          7           0       -4.668138    9.416206   -6.577893
     23          6           0       -4.797944    8.372960   -7.603132
     24          6           0       -3.385583    8.312711   -8.231673
     25          8           0       -2.391346    8.237179   -7.500643
     26          6           0       -5.964189    8.641728   -8.556528
     27          6           0       -7.336054    8.752804   -7.861101
     28          6           0       -8.420114    9.046184   -8.907533
     29          6           0       -7.681600    7.501009   -7.041107
     30          1           0       -4.256461   10.276180   -6.933975
     31          1           0       -4.953883    7.433132   -7.068521
     32          1           0       -5.767125    9.576776   -9.099523
     33          1           0       -6.006348    7.826280   -9.294384
     34          1           0       -7.282172    9.607094   -7.172804
     35          1           0       -8.522106    8.209825   -9.611297
     36          1           0       -9.393889    9.195639   -8.428811
     37          1           0       -8.188648    9.948045   -9.487403
     38          1           0       -7.650683    6.600263   -7.668920
     39          1           0       -6.996926    7.359414   -6.198501
     40          1           0       -8.694524    7.581477   -6.631578
     41          7           0       -3.248437    8.444512   -9.585759
     42          6           0       -2.091543    9.226763  -10.018955
     43          6           0       -2.233701   10.635482   -9.349692
     44          8           0       -3.282082   10.938306   -8.769243
     45          6           0       -2.020221    9.259005  -11.553645
     46          6           0       -0.619022    9.577216  -12.081466
     47          7           0       -0.430542    9.326043  -13.398286
     48          8           0        0.275727   10.037984  -11.372030
     49          1           0       -4.106788    8.700435  -10.059199
     50          1           0       -1.191593    8.752581   -9.623903
     51          1           0       -2.330167    8.277490  -11.932221
     52          1           0       -2.726250    9.993929  -11.963879
     53          1           0        0.482649    9.502993  -13.795202
     54          1           0       -1.125863    8.876406  -13.975461
     55          7           0       -1.156993   11.433507   -9.401283
     56          6           0       -1.060302   12.698554   -8.664408
     57          6           0       -1.680720   12.515579   -7.248815
     58          8           0       -2.724179   13.126391   -6.939259
     59          6           0       -1.618305   13.905938   -9.440561
     60          6           0       -0.962525   15.264123   -9.096566
     61          6           0       -1.445565   16.008980   -7.838029
     62          7           0       -1.173276   15.310647   -6.572237
     63          6           0       -0.005409   15.225378   -5.937384
     64          7           0        0.871827   16.250074   -5.960649
     65          7           0        0.309644   14.115515   -5.257152
     66          8           0       -0.971506   11.798267   -6.459783
     67          1           0       -1.723523   10.738791   -5.603735
     68          1           0       -0.354578   11.088699   -9.929086
     69          1           0        0.013594   12.840473   -8.497150
     70          1           0       -2.702738   13.945927   -9.296066
     71          1           0       -1.435215   13.721564  -10.505154
     72          1           0        0.129013   15.143489   -9.037843
     73          1           0       -1.144939   15.951082   -9.932719
     74          1           0       -1.001782   17.009622   -7.811475
     75          1           0       -2.529474   16.146103   -7.871071
     76          1           0       -1.843482   14.553765   -6.386186
     77          1           0        1.834891   16.113337   -5.693224
     78          1           0        0.593791   17.166406   -6.276839
     79          1           0        0.899501   14.166573   -4.438692
     80          1           0       -0.211627   13.245289   -5.421757
 ---------------------------------------------------------------------

 SCF Done:  E(RB3LYP) =  -1866.74100218     A.U. after    3 cycles

 Alpha  occ. eigenvalues --  -19.22317 -19.21975 -19.20993 -19.20945 -19.20285
 Alpha  occ. eigenvalues --  -19.19447 -14.51165 -14.50223 -14.48284 -14.48100
 Alpha  occ. eigenvalues --  -14.45721 -14.45383 -14.44534 -14.44485 -10.45553
 Alpha  occ. eigenvalues --  -10.39700 -10.38896 -10.38171 -10.37836 -10.37813
 Alpha  occ. eigenvalues --  -10.34740 -10.33881 -10.33286 -10.31831 -10.31651
 Alpha  occ. eigenvalues --  -10.30647 -10.29138 -10.29122 -10.29017 -10.28222
 Alpha  occ. eigenvalues --  -10.28052 -10.27937 -10.27836 -10.27508 -10.27361
 Alpha  occ. eigenvalues --  -10.26556 -10.25544 -10.23411 -10.22834  -1.14647
 Alpha  occ. eigenvalues --   -1.14198  -1.13654  -1.13323  -1.12867  -1.12077
 Alpha  occ. eigenvalues --   -1.06707  -1.04477  -1.03111  -1.02322  -1.01982
 Alpha  occ. eigenvalues --   -1.01327  -1.01079  -1.00468  -0.94634  -0.89646
 Alpha  occ. eigenvalues --   -0.89182  -0.88333  -0.87436  -0.84024  -0.83587
 Alpha  occ. eigenvalues --   -0.83364  -0.81540  -0.78943  -0.76800  -0.75561
 Alpha  occ. eigenvalues --   -0.75181  -0.74174  -0.73013  -0.71332  -0.70401
 Alpha  occ. eigenvalues --   -0.69744  -0.69573  -0.68182  -0.67660  -0.67361
 Alpha  occ. eigenvalues --   -0.67127  -0.66807  -0.66317  -0.64732  -0.63735
 Alpha  occ. eigenvalues --   -0.63596  -0.63290  -0.62770  -0.62270  -0.61258
 Alpha  occ. eigenvalues --   -0.60343  -0.59742  -0.59511  -0.58980  -0.58656
 Alpha  occ. eigenvalues --   -0.56605  -0.56199  -0.55699  -0.55354  -0.54892
 Alpha  occ. eigenvalues --   -0.54533  -0.54204  -0.53885  -0.53388  -0.53012
 Alpha  occ. eigenvalues --   -0.52648  -0.52441  -0.51780  -0.51527  -0.51127
 Alpha  occ. eigenvalues --   -0.50799  -0.50680  -0.50612  -0.50142  -0.49818
 Alpha  occ. eigenvalues --   -0.49258  -0.48831  -0.48531  -0.48257  -0.47316
 Alpha  occ. eigenvalues --   -0.47101  -0.46830  -0.46079  -0.45728  -0.45537
 Alpha  occ. eigenvalues --   -0.45354  -0.44738  -0.44527  -0.44152  -0.43863
 Alpha  occ. eigenvalues --   -0.43362  -0.43236  -0.42779  -0.42741  -0.40611
 Alpha  occ. eigenvalues --   -0.40168  -0.38979  -0.38915  -0.38277  -0.37080
 Alpha  occ. eigenvalues --   -0.36982  -0.36420  -0.36301  -0.36195  -0.35389
 Alpha  occ. eigenvalues --   -0.34599  -0.34525  -0.34139  -0.33799  -0.33607
 Alpha  occ. eigenvalues --   -0.33218  -0.32604
 Alpha virt. eigenvalues --   -0.10931  -0.10641  -0.09365  -0.09173  -0.07742
 Alpha virt. eigenvalues --   -0.07589  -0.06811  -0.06392  -0.05747  -0.04313
 Alpha virt. eigenvalues --   -0.02288  -0.01409  -0.00282   0.00189   0.00799

 Mulliken charges:
               1
     1  N   -0.837762
     2  C   -0.087522
     3  C    0.581975
     4  O   -0.477543
     5  C   -0.389076
     6  C    0.166397
     7  C   -0.195567
     8  C   -0.177817
     9  C   -0.140507
    10  C   -0.137953
    11  C   -0.147984
    12  H    0.445509
    13  H    0.206733
    14  H    0.197182
    15  H    0.213028
    16  H    0.118872
    17  H    0.152583
    18  H    0.148602
    19  H    0.139295
    20  H    0.142070
    21  H    0.383149
    22  N   -0.602789
    23  C   -0.061536
    24  C    0.613923
    25  O   -0.547774
    26  C   -0.307820
    27  C   -0.067315
    28  C   -0.446073
    29  C   -0.472884
    30  H    0.378609
    31  H    0.217896
    32  H    0.151460
    33  H    0.141946
    34  H    0.140493
    35  H    0.143476
    36  H    0.156606
    37  H    0.139641
    38  H    0.139081
    39  H    0.177028
    40  H    0.154489
    41  N   -0.578655
    42  C   -0.063546
    43  C    0.601099
    44  O   -0.555246
    45  C   -0.410076
    46  C    0.629872
    47  N   -0.739230
    48  O   -0.523264
    49  H    0.345191
    50  H    0.218174
    51  H    0.193511
    52  H    0.193469
    53  H    0.363721
    54  H    0.355841
    55  N   -0.623942
    56  C    0.009656
    57  C    0.592216
    58  O   -0.566720
    59  C   -0.272111
    60  C   -0.278362
    61  C   -0.165737
    62  N   -0.617096
    63  C    0.773516
    64  N   -0.759025
    65  N   -0.773485
    66  O   -0.634853
    67  H    0.454097
    68  H    0.388772
    69  H    0.148305
    70  H    0.185016
    71  H    0.149582
    72  H    0.144218
    73  H    0.166703
    74  H    0.154209
    75  H    0.195724
    76  H    0.416570
    77  H    0.374846
    78  H    0.377957
    79  H    0.359036
    80  H    0.417924
 Sum of Mulliken charges =   1.00000

 Dipole moment (field-independent basis, Debye):
    X=             -3.7437    Y=             62.6672    Z=            -38.0026  Tot=             73.3852
 Quadrupole moment (field-independent basis, Debye-Ang):
   XX=           -202.8006   YY=            646.0511   ZZ=            154.9481
   XY=            -24.6080   XZ=             52.0937   YZ=           -454.0355

 Normal termination of Gaussian 16 at Sat Jun 11 21:08:22 2022.
