 Gaussian 16, Revision C.01,
 Gaussian 16:  ES64L-G16RevC.01  3-Jul-2019

 ----------------------------------------------------------------------
 # B3LYP/6-31G* empiricaldispersion=gd3 guess=read geom=check nosymm in
 tegral(ultrafinegrid)
 ----------------------------------------------------------------------

 ------------------------------------------------------
 Candidate Structure: Conf:153 Charge calc in gas phase
 ------------------------------------------------------
 Structure from the checkpoint file:  "conf-153.chk"
 Charge =  1 Multiplicity = 1

                          Input orientation:
 ---------------------------------------------------------------------
 Center     Atomic      Atomic             Coordinates (Angstroms)
 Number     Number       Type             X           Y           Z
 ---------------------------------------------------------------------
      1          7           0       -1.894435    9.641140   -7.518753
      2          6           0       -2.380260    9.151363   -6.211063
      3          6           0       -3.352056   10.215150   -5.656003
      4          8           0       -4.296144   10.595757   -6.335307
      5          6           0       -1.230172    8.711787   -5.275319
      6          6           0       -0.387701    7.617206   -5.893710
      7          6           0       -0.822792    6.285034   -5.857427
      8          6           0        0.805539    7.917996   -6.564127
      9          6           0       -0.081692    5.276854   -6.473298
     10          6           0        1.549315    6.910516   -7.183013
     11          6           0        1.106710    5.587806   -7.139180
     12          1           0       -1.297678    8.936657   -7.953585
     13          1           0       -3.007840    8.276858   -6.419202
     14          1           0       -1.661743    8.352262   -4.332073
     15          1           0       -0.601845    9.582441   -5.044149
     16          1           0       -1.744258    6.035865   -5.335035
     17          1           0        1.162250    8.945603   -6.590252
     18          1           0       -0.427682    4.248049   -6.427978
     19          1           0        2.476832    7.159444   -7.690981
     20          1           0        1.686998    4.802083   -7.614235
     21          1           0       -1.317142   10.475687   -7.386560
     22          7           0       -3.109300   10.712857   -4.407920
     23          6           0       -4.056829   11.633163   -3.776583
     24          6           0       -4.176775   12.965255   -4.538683
     25          8           0       -5.217165   13.602260   -4.522084
     26          6           0       -3.674254   11.893906   -2.311519
     27          6           0       -3.637033   10.652608   -1.396586
     28          6           0       -3.248040   11.077202    0.027079
     29          6           0       -4.967370    9.887445   -1.398091
     30          1           0       -2.366232   10.330502   -3.842478
     31          1           0       -5.060341   11.203373   -3.837003
     32          1           0       -2.698807   12.400424   -2.284581
     33          1           0       -4.407690   12.608110   -1.918145
     34          1           0       -2.852864    9.967271   -1.758821
     35          1           0       -4.007838   11.744773    0.452099
     36          1           0       -3.161474   10.207022    0.686803
     37          1           0       -2.289268   11.608964    0.041034
     38          1           0       -5.792507   10.544087   -1.095314
     39          1           0       -5.208563    9.478897   -2.385706
     40          1           0       -4.932012    9.049092   -0.693874
     41          7           0       -3.030738   13.394576   -5.165522
     42          6           0       -3.141230   14.287112   -6.306215
     43          6           0       -2.590462   13.509993   -7.519779
     44          8           0       -1.753577   12.611562   -7.365258
     45          6           0       -2.414504   15.625691   -6.076261
     46          6           0       -2.866195   16.722519   -7.041662
     47          7           0       -2.409368   17.966047   -6.754824
     48          8           0       -3.585418   16.509242   -8.020455
     49          1           0       -2.297725   12.701617   -5.274223
     50          1           0       -4.203955   14.497136   -6.452789
     51          1           0       -2.624542   15.942170   -5.048087
     52          1           0       -1.326498   15.498133   -6.150682
     53          1           0       -2.727396   18.737455   -7.326141
     54          1           0       -1.913073   18.175791   -5.901196
     55          7           0       -3.112744   13.849745   -8.712071
     56          6           0       -2.818644   13.169929   -9.967783
     57          6           0       -2.351850   11.733933   -9.672909
     58          8           0       -1.256451   11.296567  -10.005347
     59          6           0       -1.853455   13.952283  -10.879462
     60          6           0       -2.096716   13.769272  -12.391457
     61          6           0       -1.711406   12.416951  -13.014118
     62          7           0       -2.502866   11.268548  -12.527793
     63          6           0       -3.815892   11.091639  -12.694638
     64          7           0       -4.430208   11.581852  -13.786681
     65          7           0       -4.518075   10.418615  -11.772618
     66          8           0       -3.324928   10.985627   -9.163239
     67          1           0       -2.861414   10.264634   -8.498719
     68          1           0       -3.641292   14.722850   -8.733307
     69          1           0       -3.788243   13.064936  -10.475783
     70          1           0       -0.823776   13.688850  -10.616065
     71          1           0       -1.984133   15.016818  -10.655806
     72          1           0       -3.150459   13.981739  -12.621426
     73          1           0       -1.512366   14.527076  -12.927704
     74          1           0       -1.781086   12.469586  -14.106411
     75          1           0       -0.675090   12.167538  -12.777184
     76          1           0       -2.076223   10.780152  -11.744336
     77          1           0       -5.436436   11.582227  -13.866502
     78          1           0       -3.898880   11.847028  -14.602989
     79          1           0       -5.459870   10.107518  -11.965509
     80          1           0       -4.198072   10.398113  -10.797288
 ---------------------------------------------------------------------

 SCF Done:  E(RB3LYP) =  -1866.73345698     A.U. after    3 cycles

 Alpha  occ. eigenvalues --  -19.25269 -19.22754 -19.21233 -19.20851 -19.19527
 Alpha  occ. eigenvalues --  -19.18004 -14.52082 -14.50591 -14.50418 -14.44803
 Alpha  occ. eigenvalues --  -14.44698 -14.44501 -14.43850 -14.42236 -10.47662
 Alpha  occ. eigenvalues --  -10.41218 -10.38373 -10.37849 -10.37011 -10.35200
 Alpha  occ. eigenvalues --  -10.35147 -10.33557 -10.32193 -10.31362 -10.30314
 Alpha  occ. eigenvalues --  -10.30254 -10.28658 -10.28574 -10.28468 -10.27675
 Alpha  occ. eigenvalues --  -10.26613 -10.26502 -10.26396 -10.26333 -10.26264
 Alpha  occ. eigenvalues --  -10.26155 -10.26100 -10.23681 -10.23593  -1.17963
 Alpha  occ. eigenvalues --   -1.15968  -1.12982  -1.12279  -1.11852  -1.09901
 Alpha  occ. eigenvalues --   -1.09074  -1.05172  -1.04165  -1.01878  -1.01036
 Alpha  occ. eigenvalues --   -1.00108  -0.99303  -0.99015  -0.93077  -0.90781
 Alpha  occ. eigenvalues --   -0.88370  -0.86965  -0.86345  -0.85042  -0.82473
 Alpha  occ. eigenvalues --   -0.81846  -0.80708  -0.79697  -0.77567  -0.75788
 Alpha  occ. eigenvalues --   -0.74660  -0.73922  -0.73341  -0.72580  -0.71879
 Alpha  occ. eigenvalues --   -0.69770  -0.68542  -0.68116  -0.67447  -0.67016
 Alpha  occ. eigenvalues --   -0.65879  -0.65522  -0.65267  -0.64758  -0.64208
 Alpha  occ. eigenvalues --   -0.63444  -0.63195  -0.62177  -0.61830  -0.60772
 Alpha  occ. eigenvalues --   -0.59250  -0.58653  -0.58236  -0.57714  -0.57172
 Alpha  occ. eigenvalues --   -0.56650  -0.56088  -0.55527  -0.55127  -0.54955
 Alpha  occ. eigenvalues --   -0.54550  -0.54099  -0.53383  -0.53180  -0.52842
 Alpha  occ. eigenvalues --   -0.52443  -0.52004  -0.51319  -0.50983  -0.50621
 Alpha  occ. eigenvalues --   -0.50267  -0.49969  -0.49544  -0.49368  -0.49120
 Alpha  occ. eigenvalues --   -0.48438  -0.47924  -0.47720  -0.47321  -0.47013
 Alpha  occ. eigenvalues --   -0.46504  -0.45979  -0.45738  -0.45579  -0.44939
 Alpha  occ. eigenvalues --   -0.44720  -0.44612  -0.44550  -0.43616  -0.43507
 Alpha  occ. eigenvalues --   -0.43246  -0.42763  -0.42085  -0.41794  -0.41470
 Alpha  occ. eigenvalues --   -0.39832  -0.39517  -0.39453  -0.39361  -0.39093
 Alpha  occ. eigenvalues --   -0.36972  -0.36320  -0.36132  -0.35424  -0.34974
 Alpha  occ. eigenvalues --   -0.34637  -0.34439  -0.33575  -0.32491  -0.32415
 Alpha  occ. eigenvalues --   -0.31714  -0.31005
 Alpha virt. eigenvalues --   -0.12486  -0.09764  -0.07932  -0.07755  -0.07664
 Alpha virt. eigenvalues --   -0.07226  -0.06611  -0.05864  -0.04355  -0.04184
 Alpha virt. eigenvalues --   -0.01503  -0.01428  -0.00415  -0.00087   0.00462

 Mulliken charges:
               1
     1  N   -0.808898
     2  C   -0.052399
     3  C    0.627978
     4  O   -0.510113
     5  C   -0.395392
     6  C    0.154437
     7  C   -0.178693
     8  C   -0.197997
     9  C   -0.128091
    10  C   -0.127517
    11  C   -0.128020
    12  H    0.348949
    13  H    0.184292
    14  H    0.162945
    15  H    0.154979
    16  H    0.134232
    17  H    0.132707
    18  H    0.148781
    19  H    0.146292
    20  H    0.148617
    21  H    0.376080
    22  N   -0.662372
    23  C   -0.017392
    24  C    0.610500
    25  O   -0.507121
    26  C   -0.303438
    27  C   -0.080959
    28  C   -0.442818
    29  C   -0.450439
    30  H    0.349748
    31  H    0.194686
    32  H    0.139176
    33  H    0.176805
    34  H    0.108076
    35  H    0.154313
    36  H    0.154758
    37  H    0.144365
    38  H    0.157545
    39  H    0.146137
    40  H    0.155227
    41  N   -0.607477
    42  C   -0.058671
    43  C    0.636797
    44  O   -0.570451
    45  C   -0.384425
    46  C    0.623586
    47  N   -0.739077
    48  O   -0.534792
    49  H    0.340405
    50  H    0.211161
    51  H    0.196940
    52  H    0.186146
    53  H    0.358023
    54  H    0.353832
    55  N   -0.619900
    56  C    0.022908
    57  C    0.571749
    58  O   -0.521922
    59  C   -0.279230
    60  C   -0.288246
    61  C   -0.165231
    62  N   -0.596476
    63  C    0.779368
    64  N   -0.752276
    65  N   -0.776771
    66  O   -0.621456
    67  H    0.486419
    68  H    0.386454
    69  H    0.147555
    70  H    0.184655
    71  H    0.169847
    72  H    0.148117
    73  H    0.175503
    74  H    0.165606
    75  H    0.207489
    76  H    0.389457
    77  H    0.379966
    78  H    0.385281
    79  H    0.369937
    80  H    0.419238
 Sum of Mulliken charges =   1.00000

 Dipole moment (field-independent basis, Debye):
    X=            -11.7416    Y=             56.3741    Z=            -48.7310  Tot=             75.4361
 Quadrupole moment (field-independent basis, Debye-Ang):
   XX=           -189.4324   YY=            504.7657   ZZ=            373.4896
   XY=           -128.5670   XZ=            154.5483   YZ=           -573.1932

 Normal termination of Gaussian 16 at Sat Jun 11 21:08:07 2022.
