 Gaussian 16, Revision C.01,
 Gaussian 16:  ES64L-G16RevC.01  3-Jul-2019

 ----------------------------------------------------------------------
 # B3LYP/6-31G* empiricaldispersion=gd3 guess=read geom=check nosymm in
 tegral(ultrafinegrid)
 ----------------------------------------------------------------------

 ------------------------------------------------------
 Candidate Structure: Conf:746 Charge calc in gas phase
 ------------------------------------------------------
 Structure from the checkpoint file:  "conf-746.chk"
 Charge =  1 Multiplicity = 1

                          Input orientation:
 ---------------------------------------------------------------------
 Center     Atomic      Atomic             Coordinates (Angstroms)
 Number     Number       Type             X           Y           Z
 ---------------------------------------------------------------------
      1          7           0       -2.139661   11.257588   -9.160848
      2          6           0       -2.639039    9.965891   -9.695344
      3          6           0       -4.179980   10.066587   -9.586775
      4          8           0       -4.751560   11.007051  -10.129999
      5          6           0       -1.969568    8.788408   -8.966008
      6          6           0       -0.463402    8.820698   -9.097710
      7          6           0        0.167945    8.352430  -10.256044
      8          6           0        0.317936    9.377239   -8.079055
      9          6           0        1.553710    8.443050  -10.395831
     10          6           0        1.702738    9.475280   -8.218293
     11          6           0        2.325574    9.007534   -9.377242
     12          1           0       -2.536515   11.339891   -8.223351
     13          1           0       -2.386383    9.924227  -10.759601
     14          1           0       -2.368623    7.851668   -9.376853
     15          1           0       -2.237530    8.825869   -7.901874
     16          1           0       -0.427375    7.911641  -11.053207
     17          1           0       -0.158339    9.740307   -7.173901
     18          1           0        2.030957    8.068372  -11.297199
     19          1           0        2.289774    9.911450   -7.414090
     20          1           0        3.404951    9.072812   -9.485044
     21          1           0       -2.595823   11.991890   -9.706252
     22          7           0       -4.843955    9.220294   -8.744182
     23          6           0       -6.198646    9.548910   -8.296599
     24          6           0       -6.207540   10.822587   -7.419806
     25          8           0       -7.166078   11.581183   -7.381423
     26          6           0       -6.832903    8.374206   -7.538085
     27          6           0       -6.981433    7.069639   -8.346453
     28          6           0       -7.598600    5.981271   -7.456193
     29          6           0       -7.808960    7.269940   -9.623305
     30          1           0       -4.372449    8.425082   -8.337638
     31          1           0       -6.799655    9.812826   -9.168443
     32          1           0       -6.245022    8.178767   -6.628554
     33          1           0       -7.822641    8.706987   -7.201477
     34          1           0       -5.977911    6.728758   -8.644675
     35          1           0       -8.612436    6.263240   -7.145236
     36          1           0       -7.667710    5.028660   -7.992525
     37          1           0       -7.003893    5.815645   -6.549742
     38          1           0       -8.803314    7.667767   -9.383870
     39          1           0       -7.328078    7.961580  -10.323293
     40          1           0       -7.947954    6.317247  -10.145802
     41          7           0       -5.087587   11.010246   -6.657464
     42          6           0       -4.765665   12.303174   -6.088451
     43          6           0       -3.227224   12.338908   -5.961489
     44          8           0       -2.551863   11.334957   -6.246596
     45          6           0       -5.540143   12.557351   -4.770576
     46          6           0       -5.705903   14.038251   -4.444030
     47          7           0       -6.860976   14.377318   -3.832686
     48          8           0       -4.837772   14.884262   -4.693814
     49          1           0       -4.291985   10.398999   -6.789552
     50          1           0       -5.062554   13.084394   -6.800952
     51          1           0       -6.519696   12.089875   -4.897617
     52          1           0       -5.043611   12.062417   -3.926453
     53          1           0       -7.024465   15.353234   -3.621878
     54          1           0       -7.630813   13.731732   -3.735539
     55          7           0       -2.663503   13.506074   -5.622030
     56          6           0       -1.215662   13.708049   -5.578634
     57          6           0       -0.502310   12.683933   -6.484487
     58          8           0        0.314150   11.876274   -6.084359
     59          6           0       -0.655899   13.724647   -4.142585
     60          6           0        0.588027   14.611578   -3.925307
     61          6           0        1.938321   14.100303   -4.455714
     62          7           0        2.040285   14.042308   -5.927208
     63          6           0        2.022616   15.081603   -6.762778
     64          7           0        2.479804   16.282539   -6.366638
     65          7           0        1.542608   14.922995   -8.004858
     66          8           0       -0.716031   12.959126   -7.790264
     67          1           0       -0.797653   12.123281   -8.371356
     68          1           0       -3.301477   14.257044   -5.320340
     69          1           0       -1.039899   14.686846   -6.047044
     70          1           0       -0.460797   12.695055   -3.824685
     71          1           0       -1.447351   14.118009   -3.495603
     72          1           0        0.400418   15.616098   -4.330458
     73          1           0        0.721223   14.743977   -2.844684
     74          1           0        2.754099   14.715527   -4.060421
     75          1           0        2.123133   13.079325   -4.115611
     76          1           0        1.807896   13.136584   -6.325997
     77          1           0        2.344171   17.107365   -6.932841
     78          1           0        3.084928   16.365579   -5.562661
     79          1           0        1.727367   15.603038   -8.728805
     80          1           0        0.870322   14.180026   -8.203410
 ---------------------------------------------------------------------

 SCF Done:  E(RB3LYP) =  -1866.72146223     A.U. after    3 cycles

 Alpha  occ. eigenvalues --  -19.28642 -19.25015 -19.23288 -19.21964 -19.19005
 Alpha  occ. eigenvalues --  -19.18740 -14.53032 -14.51868 -14.51520 -14.46394
 Alpha  occ. eigenvalues --  -14.45496 -14.44282 -14.43316 -14.41518 -10.48740
 Alpha  occ. eigenvalues --  -10.43697 -10.39880 -10.39383 -10.36245 -10.36180
 Alpha  occ. eigenvalues --  -10.35816 -10.35323 -10.33515 -10.31338 -10.30837
 Alpha  occ. eigenvalues --  -10.30316 -10.29998 -10.29454 -10.27234 -10.26268
 Alpha  occ. eigenvalues --  -10.26062 -10.25716 -10.25360 -10.25301 -10.25253
 Alpha  occ. eigenvalues --  -10.25212 -10.24910 -10.23282 -10.23097  -1.20272
 Alpha  occ. eigenvalues --   -1.17087  -1.15106  -1.13392  -1.12029  -1.11484
 Alpha  occ. eigenvalues --   -1.10498  -1.06227  -1.05307  -1.03443  -1.01120
 Alpha  occ. eigenvalues --   -1.00289  -0.99590  -0.98294  -0.92014  -0.91871
 Alpha  occ. eigenvalues --   -0.88442  -0.87797  -0.86190  -0.85230  -0.82023
 Alpha  occ. eigenvalues --   -0.81968  -0.80653  -0.78959  -0.78536  -0.77416
 Alpha  occ. eigenvalues --   -0.74612  -0.74211  -0.74180  -0.72645  -0.72232
 Alpha  occ. eigenvalues --   -0.70697  -0.69819  -0.68652  -0.67725  -0.67052
 Alpha  occ. eigenvalues --   -0.66637  -0.66605  -0.65816  -0.65763  -0.64812
 Alpha  occ. eigenvalues --   -0.64397  -0.63330  -0.62902  -0.61885  -0.61121
 Alpha  occ. eigenvalues --   -0.60217  -0.59027  -0.58702  -0.58450  -0.57593
 Alpha  occ. eigenvalues --   -0.57365  -0.56683  -0.56541  -0.55822  -0.55585
 Alpha  occ. eigenvalues --   -0.55487  -0.54822  -0.54109  -0.53451  -0.52919
 Alpha  occ. eigenvalues --   -0.52659  -0.52009  -0.51853  -0.51666  -0.50705
 Alpha  occ. eigenvalues --   -0.50291  -0.50114  -0.49727  -0.49117  -0.48684
 Alpha  occ. eigenvalues --   -0.48301  -0.48151  -0.47528  -0.47319  -0.47192
 Alpha  occ. eigenvalues --   -0.46966  -0.46492  -0.46413  -0.46114  -0.45958
 Alpha  occ. eigenvalues --   -0.45423  -0.44821  -0.44334  -0.44074  -0.43821
 Alpha  occ. eigenvalues --   -0.42975  -0.42240  -0.42033  -0.41800  -0.40725
 Alpha  occ. eigenvalues --   -0.40646  -0.40298  -0.39280  -0.39069  -0.38838
 Alpha  occ. eigenvalues --   -0.38669  -0.37314  -0.37010  -0.36485  -0.36358
 Alpha  occ. eigenvalues --   -0.35902  -0.34814  -0.33262  -0.32418  -0.31290
 Alpha  occ. eigenvalues --   -0.31177  -0.30552
 Alpha virt. eigenvalues --   -0.13506  -0.12043  -0.08949  -0.08372  -0.07434
 Alpha virt. eigenvalues --   -0.06765  -0.06475  -0.06228  -0.05263  -0.04670
 Alpha virt. eigenvalues --   -0.02579  -0.01805  -0.01179  -0.01031  -0.00535

 Mulliken charges:
               1
     1  N   -0.796606
     2  C   -0.042184
     3  C    0.584196
     4  O   -0.511586
     5  C   -0.402727
     6  C    0.191662
     7  C   -0.180195
     8  C   -0.197107
     9  C   -0.130226
    10  C   -0.143613
    11  C   -0.130148
    12  H    0.355068
    13  H    0.180912
    14  H    0.159971
    15  H    0.152579
    16  H    0.130672
    17  H    0.156818
    18  H    0.142051
    19  H    0.120982
    20  H    0.134018
    21  H    0.335860
    22  N   -0.647109
    23  C   -0.024749
    24  C    0.613529
    25  O   -0.522397
    26  C   -0.300395
    27  C   -0.072231
    28  C   -0.443499
    29  C   -0.453686
    30  H    0.343973
    31  H    0.206440
    32  H    0.131313
    33  H    0.171234
    34  H    0.116556
    35  H    0.150730
    36  H    0.155636
    37  H    0.141068
    38  H    0.152375
    39  H    0.155749
    40  H    0.155379
    41  N   -0.632162
    42  C   -0.027690
    43  C    0.603285
    44  O   -0.557647
    45  C   -0.380061
    46  C    0.632238
    47  N   -0.731267
    48  O   -0.545347
    49  H    0.348859
    50  H    0.205730
    51  H    0.202832
    52  H    0.190109
    53  H    0.361806
    54  H    0.362928
    55  N   -0.627610
    56  C    0.012581
    57  C    0.596907
    58  O   -0.485402
    59  C   -0.278207
    60  C   -0.288739
    61  C   -0.166371
    62  N   -0.598959
    63  C    0.785328
    64  N   -0.750829
    65  N   -0.774004
    66  O   -0.634346
    67  H    0.459241
    68  H    0.401545
    69  H    0.157304
    70  H    0.188216
    71  H    0.171295
    72  H    0.149886
    73  H    0.179958
    74  H    0.168793
    75  H    0.210585
    76  H    0.393311
    77  H    0.381867
    78  H    0.387339
    79  H    0.374446
    80  H    0.411938
 Sum of Mulliken charges =   1.00000

 Dipole moment (field-independent basis, Debye):
    X=             -0.5977    Y=             67.5609    Z=            -27.9844  Tot=             73.1297
 Quadrupole moment (field-independent basis, Debye-Ang):
   XX=           -157.6914   YY=            777.6629   ZZ=            -42.0221
   XY=             36.2287   XZ=            -25.6441   YZ=           -381.6459

 Normal termination of Gaussian 16 at Sat Jun 11 21:07:38 2022.
