 Gaussian 16, Revision C.01,
 Gaussian 16:  ES64L-G16RevC.01  3-Jul-2019

 ----------------------------------------------------------------------
 # B3LYP/6-31G* empiricaldispersion=gd3 guess=read geom=check nosymm in
 tegral(ultrafinegrid)
 ----------------------------------------------------------------------

 ------------------------------------------------------
 Candidate Structure: Conf:112 Charge calc in gas phase
 ------------------------------------------------------
 Structure from the checkpoint file:  "conf-112.chk"
 Charge =  1 Multiplicity = 1

                          Input orientation:
 ---------------------------------------------------------------------
 Center     Atomic      Atomic             Coordinates (Angstroms)
 Number     Number       Type             X           Y           Z
 ---------------------------------------------------------------------
      1          7           0       -1.015703   10.605609   -7.651396
      2          6           0       -0.344367   10.755936   -6.339627
      3          6           0       -1.014009    9.791935   -5.338784
      4          8           0       -0.534235    8.691580   -5.109929
      5          6           0       -0.340461   12.230170   -5.899237
      6          6           0        0.228110   13.201960   -6.913271
      7          6           0       -0.523124   14.317378   -7.312489
      8          6           0        1.520509   13.047168   -7.436135
      9          6           0        0.013613   15.273032   -8.182717
     10          6           0        2.052510   13.987448   -8.320128
     11          6           0        1.304925   15.109694   -8.690253
     12          1           0       -1.934632   11.052152   -7.607382
     13          1           0        0.681815   10.393411   -6.444143
     14          1           0        0.227044   12.298194   -4.962483
     15          1           0       -1.361116   12.550604   -5.663508
     16          1           0       -1.530116   14.447561   -6.922894
     17          1           0        2.121806   12.190957   -7.141575
     18          1           0       -0.574297   16.145764   -8.455164
     19          1           0        3.056179   13.850056   -8.711722
     20          1           0        1.725957   15.848527   -9.365624
     21          1           0       -1.215069    9.617869   -7.822754
     22          7           0       -2.221143   10.212595   -4.834328
     23          6           0       -3.245651    9.244508   -4.406766
     24          6           0       -4.336153    9.436359   -5.465807
     25          8           0       -4.274648    8.865348   -6.557740
     26          6           0       -3.660457    9.424727   -2.943056
     27          6           0       -2.519539    9.189269   -1.932377
     28          6           0       -3.016487    9.500403   -0.513398
     29          6           0       -1.948557    7.765776   -2.017259
     30          1           0       -2.599157   11.067709   -5.228454
     31          1           0       -2.829082    8.249316   -4.566034
     32          1           0       -4.044219   10.445403   -2.787149
     33          1           0       -4.490560    8.737084   -2.728585
     34          1           0       -1.714394    9.895620   -2.178527
     35          1           0       -3.820404    8.812841   -0.220609
     36          1           0       -2.206268    9.391182    0.215376
     37          1           0       -3.403630   10.523911   -0.433205
     38          1           0       -2.740620    7.017060   -1.883300
     39          1           0       -1.448964    7.583505   -2.973313
     40          1           0       -1.208048    7.607047   -1.225679
     41          7           0       -5.266517   10.405062   -5.229134
     42          6           0       -5.955615   10.976668   -6.372470
     43          6           0       -4.876848   11.441107   -7.392494
     44          8           0       -3.767175   11.839378   -7.016072
     45          6           0       -6.898486   12.104812   -5.944228
     46          6           0       -7.923352   12.424380   -7.040475
     47          7           0       -8.803951   13.405972   -6.736688
     48          8           0       -7.944035   11.831665   -8.118191
     49          1           0       -5.182898   10.957321   -4.386518
     50          1           0       -6.546061   10.187389   -6.842820
     51          1           0       -7.441232   11.791766   -5.042610
     52          1           0       -6.335490   13.010468   -5.683482
     53          1           0       -9.540154   13.611503   -7.399334
     54          1           0       -8.851103   13.832858   -5.822878
     55          7           0       -5.230274   11.286593   -8.684343
     56          6           0       -4.338670   11.452597   -9.824734
     57          6           0       -3.369216   10.255990  -10.007863
     58          8           0       -2.642986   10.211625  -10.982848
     59          6           0       -3.557803   12.796678   -9.817541
     60          6           0       -3.024736   13.216841  -11.204778
     61          6           0       -1.633767   13.868369  -11.134130
     62          7           0       -0.619710   12.993735  -10.530413
     63          6           0       -0.249104   11.792684  -10.988924
     64          7           0       -0.347898   11.486504  -12.303019
     65          7           0        0.292056   10.922017  -10.137457
     66          8           0       -3.314324    9.288147   -9.095720
     67          1           0       -3.935696    9.352170   -8.333304
     68          1           0       -6.222588   11.125143   -8.850138
     69          1           0       -4.980938   11.435684  -10.711124
     70          1           0       -2.741279   12.719847   -9.097501
     71          1           0       -4.235873   13.561063   -9.424611
     72          1           0       -2.969230   12.344748  -11.859229
     73          1           0       -3.709650   13.928912  -11.680071
     74          1           0       -1.305792   14.196153  -12.128051
     75          1           0       -1.648779   14.763501  -10.507408
     76          1           0       -0.318618   13.221608   -9.589583
     77          1           0       -0.642346   10.541899  -12.519020
     78          1           0       -0.707675   12.188044  -12.934059
     79          1           0        0.638251   10.049409  -10.514519
     80          1           0       -0.074554   10.902750   -9.152482
 ---------------------------------------------------------------------

 SCF Done:  E(RB3LYP) =  -1866.75132264     A.U. after    3 cycles

 Alpha  occ. eigenvalues --  -19.28791 -19.24254 -19.23611 -19.23235 -19.22967
 Alpha  occ. eigenvalues --  -19.20281 -14.48966 -14.48691 -14.47644 -14.47440
 Alpha  occ. eigenvalues --  -14.46891 -14.46752 -14.44738 -14.43295 -10.44628
 Alpha  occ. eigenvalues --  -10.42475 -10.41006 -10.40944 -10.39656 -10.37186
 Alpha  occ. eigenvalues --  -10.35632 -10.35208 -10.34656 -10.32376 -10.32169
 Alpha  occ. eigenvalues --  -10.32109 -10.30136 -10.29805 -10.29762 -10.29169
 Alpha  occ. eigenvalues --  -10.29006 -10.28884 -10.28710 -10.28645 -10.28598
 Alpha  occ. eigenvalues --  -10.27214 -10.25885 -10.23732 -10.22879  -1.19992
 Alpha  occ. eigenvalues --   -1.16253  -1.14884  -1.14390  -1.13439  -1.12111
 Alpha  occ. eigenvalues --   -1.11453  -1.04522  -1.04004  -1.03132  -1.01785
 Alpha  occ. eigenvalues --   -1.01659  -1.01171  -0.99510  -0.95345  -0.91578
 Alpha  occ. eigenvalues --   -0.90063  -0.88485  -0.87656  -0.86142  -0.84201
 Alpha  occ. eigenvalues --   -0.83554  -0.81242  -0.80314  -0.78068  -0.75526
 Alpha  occ. eigenvalues --   -0.74912  -0.74276  -0.73796  -0.72241  -0.71979
 Alpha  occ. eigenvalues --   -0.71089  -0.70245  -0.69890  -0.69379  -0.68837
 Alpha  occ. eigenvalues --   -0.68000  -0.67058  -0.66604  -0.65369  -0.64960
 Alpha  occ. eigenvalues --   -0.63787  -0.63332  -0.63195  -0.61965  -0.61222
 Alpha  occ. eigenvalues --   -0.60813  -0.60626  -0.59983  -0.59337  -0.59160
 Alpha  occ. eigenvalues --   -0.57575  -0.57247  -0.56695  -0.56064  -0.55975
 Alpha  occ. eigenvalues --   -0.55402  -0.55276  -0.55074  -0.54841  -0.54307
 Alpha  occ. eigenvalues --   -0.53482  -0.53235  -0.52943  -0.52735  -0.52098
 Alpha  occ. eigenvalues --   -0.51840  -0.51467  -0.51192  -0.50858  -0.50126
 Alpha  occ. eigenvalues --   -0.49645  -0.49555  -0.49157  -0.48882  -0.48511
 Alpha  occ. eigenvalues --   -0.47678  -0.47611  -0.47286  -0.46563  -0.46268
 Alpha  occ. eigenvalues --   -0.45611  -0.45400  -0.45310  -0.45003  -0.44876
 Alpha  occ. eigenvalues --   -0.44486  -0.43755  -0.43326  -0.43091  -0.41364
 Alpha  occ. eigenvalues --   -0.40451  -0.40358  -0.39660  -0.39315  -0.39183
 Alpha  occ. eigenvalues --   -0.38693  -0.38409  -0.38265  -0.38074  -0.37445
 Alpha  occ. eigenvalues --   -0.37127  -0.36678  -0.35711  -0.35045  -0.34069
 Alpha  occ. eigenvalues --   -0.33743  -0.32764
 Alpha virt. eigenvalues --   -0.11650  -0.10977  -0.10414  -0.09863  -0.09629
 Alpha virt. eigenvalues --   -0.09063  -0.08697  -0.05699  -0.04558  -0.03325
 Alpha virt. eigenvalues --   -0.02598  -0.02198  -0.01340  -0.00993   0.00190

 Mulliken charges:
               1
     1  N   -0.830019
     2  C   -0.051162
     3  C    0.593305
     4  O   -0.493472
     5  C   -0.386999
     6  C    0.179063
     7  C   -0.219511
     8  C   -0.183554
     9  C   -0.158978
    10  C   -0.134794
    11  C   -0.137065
    12  H    0.362378
    13  H    0.174357
    14  H    0.190021
    15  H    0.154701
    16  H    0.143496
    17  H    0.150392
    18  H    0.148416
    19  H    0.158498
    20  H    0.155161
    21  H    0.352730
    22  N   -0.616234
    23  C   -0.063901
    24  C    0.607733
    25  O   -0.543905
    26  C   -0.266915
    27  C   -0.069501
    28  C   -0.446413
    29  C   -0.473276
    30  H    0.351847
    31  H    0.217543
    32  H    0.109932
    33  H    0.153949
    34  H    0.138288
    35  H    0.147237
    36  H    0.158539
    37  H    0.135023
    38  H    0.139506
    39  H    0.183677
    40  H    0.154790
    41  N   -0.607879
    42  C   -0.005222
    43  C    0.571025
    44  O   -0.554221
    45  C   -0.429899
    46  C    0.628982
    47  N   -0.740347
    48  O   -0.519861
    49  H    0.345548
    50  H    0.209172
    51  H    0.200286
    52  H    0.191999
    53  H    0.367101
    54  H    0.356688
    55  N   -0.618951
    56  C   -0.069367
    57  C    0.610806
    58  O   -0.487914
    59  C   -0.275195
    60  C   -0.286216
    61  C   -0.182242
    62  N   -0.596502
    63  C    0.757672
    64  N   -0.730545
    65  N   -0.768453
    66  O   -0.588518
    67  H    0.476730
    68  H    0.394916
    69  H    0.199122
    70  H    0.170863
    71  H    0.165027
    72  H    0.178479
    73  H    0.164993
    74  H    0.172208
    75  H    0.182042
    76  H    0.392985
    77  H    0.382418
    78  H    0.364196
    79  H    0.356758
    80  H    0.436433
 Sum of Mulliken charges =   1.00000

 Dipole moment (field-independent basis, Debye):
    X=            -17.0197    Y=             63.1578    Z=            -40.1844  Tot=             76.7683
 Quadrupole moment (field-independent basis, Debye-Ang):
   XX=           -100.2663   YY=            599.9753   ZZ=            169.5893
   XY=           -227.3312   XZ=            100.1816   YZ=           -529.8070

 Normal termination of Gaussian 16 at Sat Jun 11 21:08:26 2022.
