 Gaussian 16, Revision C.01,
 Gaussian 16:  ES64L-G16RevC.01  3-Jul-2019

 ----------------------------------------------------------------------
 # B3LYP/6-31G* empiricaldispersion=gd3 guess=read geom=check nosymm in
 tegral(ultrafinegrid)
 ----------------------------------------------------------------------

 ------------------------------------------------------
 Candidate Structure: Conf:386 Charge calc in gas phase
 ------------------------------------------------------
 Structure from the checkpoint file:  "conf-386.chk"
 Charge =  1 Multiplicity = 1

                          Input orientation:
 ---------------------------------------------------------------------
 Center     Atomic      Atomic             Coordinates (Angstroms)
 Number     Number       Type             X           Y           Z
 ---------------------------------------------------------------------
      1          7           0       -4.623125    9.246327   -7.474142
      2          6           0       -3.602454    8.847857   -6.478519
      3          6           0       -3.548098    9.953450   -5.410286
      4          8           0       -4.315606   10.908427   -5.443202
      5          6           0       -2.258342    8.568534   -7.190326
      6          6           0       -2.374585    7.396134   -8.142458
      7          6           0       -2.316980    6.081312   -7.658686
      8          6           0       -2.597540    7.602914   -9.511273
      9          6           0       -2.475802    4.995578   -8.519238
     10          6           0       -2.758726    6.515126  -10.373862
     11          6           0       -2.699127    5.210684   -9.881765
     12          1           0       -5.514246    9.390438   -6.998915
     13          1           0       -3.915950    7.921941   -5.970877
     14          1           0       -1.498207    8.351459   -6.430835
     15          1           0       -1.940838    9.476306   -7.708351
     16          1           0       -2.136721    5.906567   -6.599389
     17          1           0       -2.632840    8.619196   -9.893406
     18          1           0       -2.419905    3.983077   -8.129239
     19          1           0       -2.922428    6.688070  -11.434462
     20          1           0       -2.819296    4.365946  -10.554109
     21          1           0       -4.732963    8.492377   -8.153300
     22          7           0       -2.625689    9.788540   -4.419656
     23          6           0       -2.572251   10.692793   -3.263198
     24          6           0       -2.410244   12.153832   -3.714502
     25          8           0       -2.986915   13.065845   -3.143940
     26          6           0       -1.453852   10.223102   -2.314283
     27          6           0       -1.277967   11.070015   -1.030722
     28          6           0       -0.760211   10.183092    0.111870
     29          6           0       -0.335732   12.267390   -1.239311
     30          1           0       -2.082450    8.936596   -4.380692
     31          1           0       -3.533272   10.673982   -2.738368
     32          1           0       -1.694948    9.188451   -2.032047
     33          1           0       -0.503453   10.186077   -2.865820
     34          1           0       -2.264129   11.461062   -0.745284
     35          1           0        0.210228    9.739568   -0.146913
     36          1           0       -0.623870   10.765880    1.029341
     37          1           0       -1.455426    9.364697    0.333479
     38          1           0       -0.226694   12.830451   -0.305714
     39          1           0        0.662767   11.923660   -1.539997
     40          1           0       -0.708433   12.958816   -1.998339
     41          7           0       -1.531590   12.341438   -4.752578
     42          6           0       -1.704456   13.492431   -5.620218
     43          6           0       -1.909192   12.927842   -7.040454
     44          8           0       -1.609624   11.758722   -7.308967
     45          6           0       -0.526670   14.485206   -5.510441
     46          6           0       -0.883234   15.900303   -5.962511
     47          7           0       -0.063122   16.877344   -5.507437
     48          8           0       -1.835838   16.154843   -6.704986
     49          1           0       -1.269359   11.505909   -5.267826
     50          1           0       -2.616469   14.010875   -5.308451
     51          1           0       -0.214452   14.501300   -4.460731
     52          1           0        0.337647   14.132818   -6.088963
     53          1           0       -0.277704   17.835527   -5.749472
     54          1           0        0.651860   16.706629   -4.815871
     55          7           0       -2.473817   13.754049   -7.938032
     56          6           0       -2.834062   13.307951   -9.275430
     57          6           0       -3.231918   11.815538   -9.229046
     58          8           0       -2.732921   10.965902   -9.961874
     59          6           0       -1.768848   13.622071  -10.347721
     60          6           0       -2.326164   13.998853  -11.735787
     61          6           0       -2.933112   12.871205  -12.586074
     62          7           0       -4.132401   12.244159  -11.994099
     63          6           0       -5.303881   12.843739  -11.778870
     64          7           0       -5.727499   13.821791  -12.599177
     65          7           0       -6.068313   12.461849  -10.743258
     66          8           0       -4.296800   11.613369   -8.470581
     67          1           0       -4.377280   10.589146   -8.123680
     68          1           0       -2.563656   14.737318   -7.670745
     69          1           0       -3.759535   13.848063   -9.519922
     70          1           0       -1.076056   12.777608  -10.421369
     71          1           0       -1.195038   14.482183   -9.987167
     72          1           0       -3.068631   14.802322  -11.626354
     73          1           0       -1.508797   14.422448  -12.332320
     74          1           0       -3.170196   13.237161  -13.591094
     75          1           0       -2.217775   12.055287  -12.709014
     76          1           0       -3.913189   11.449362  -11.395257
     77          1           0       -6.533606   14.385781  -12.373466
     78          1           0       -5.310701   13.948757  -13.509785
     79          1           0       -7.032535   12.756394  -10.677002
     80          1           0       -5.641732   12.045805   -9.910418
 ---------------------------------------------------------------------

 SCF Done:  E(RB3LYP) =  -1866.73830975     A.U. after    3 cycles

 Alpha  occ. eigenvalues --  -19.25840 -19.23071 -19.20955 -19.20915 -19.20118
 Alpha  occ. eigenvalues --  -19.18022 -14.52406 -14.51197 -14.50581 -14.44879
 Alpha  occ. eigenvalues --  -14.44663 -14.44574 -14.44416 -14.41931 -10.48026
 Alpha  occ. eigenvalues --  -10.41664 -10.38416 -10.37507 -10.37261 -10.35345
 Alpha  occ. eigenvalues --  -10.35100 -10.33681 -10.32455 -10.31390 -10.30558
 Alpha  occ. eigenvalues --  -10.30347 -10.28657 -10.28566 -10.27298 -10.26956
 Alpha  occ. eigenvalues --  -10.26265 -10.26049 -10.25956 -10.25914 -10.25749
 Alpha  occ. eigenvalues --  -10.25603 -10.25152 -10.22888 -10.22646  -1.18277
 Alpha  occ. eigenvalues --   -1.16327  -1.12968  -1.12360  -1.12222  -1.09908
 Alpha  occ. eigenvalues --   -1.09516  -1.05457  -1.04612  -1.01611  -1.01111
 Alpha  occ. eigenvalues --   -1.00654  -0.99349  -0.98980  -0.92533  -0.90833
 Alpha  occ. eigenvalues --   -0.88074  -0.86834  -0.85957  -0.84982  -0.82247
 Alpha  occ. eigenvalues --   -0.81299  -0.80879  -0.79361  -0.77770  -0.75978
 Alpha  occ. eigenvalues --   -0.73752  -0.73666  -0.73406  -0.72859  -0.71729
 Alpha  occ. eigenvalues --   -0.69794  -0.68815  -0.67602  -0.67336  -0.67125
 Alpha  occ. eigenvalues --   -0.65860  -0.65657  -0.65143  -0.64932  -0.64423
 Alpha  occ. eigenvalues --   -0.63448  -0.62300  -0.62106  -0.61843  -0.60912
 Alpha  occ. eigenvalues --   -0.59834  -0.58864  -0.58507  -0.57689  -0.57481
 Alpha  occ. eigenvalues --   -0.57313  -0.56283  -0.56004  -0.55272  -0.55064
 Alpha  occ. eigenvalues --   -0.54123  -0.53661  -0.53355  -0.52795  -0.52435
 Alpha  occ. eigenvalues --   -0.52144  -0.51770  -0.51207  -0.51017  -0.50470
 Alpha  occ. eigenvalues --   -0.50220  -0.50089  -0.49066  -0.48854  -0.48720
 Alpha  occ. eigenvalues --   -0.48166  -0.48022  -0.47701  -0.47304  -0.46999
 Alpha  occ. eigenvalues --   -0.46522  -0.46177  -0.45890  -0.45195  -0.44732
 Alpha  occ. eigenvalues --   -0.44609  -0.44249  -0.44101  -0.43674  -0.43195
 Alpha  occ. eigenvalues --   -0.42656  -0.42105  -0.41878  -0.41214  -0.40933
 Alpha  occ. eigenvalues --   -0.40240  -0.39593  -0.39143  -0.38441  -0.38353
 Alpha  occ. eigenvalues --   -0.37656  -0.36796  -0.36062  -0.35388  -0.34927
 Alpha  occ. eigenvalues --   -0.34647  -0.34255  -0.33773  -0.32421  -0.32011
 Alpha  occ. eigenvalues --   -0.31374  -0.31107
 Alpha virt. eigenvalues --   -0.12859  -0.09832  -0.08016  -0.07835  -0.07191
 Alpha virt. eigenvalues --   -0.06890  -0.06287  -0.05510  -0.04725  -0.04564
 Alpha virt. eigenvalues --   -0.01891  -0.01616  -0.00480  -0.00371   0.00073

 Mulliken charges:
               1
     1  N   -0.796569
     2  C   -0.080796
     3  C    0.649608
     4  O   -0.519141
     5  C   -0.385804
     6  C    0.141040
     7  C   -0.179984
     8  C   -0.215288
     9  C   -0.127250
    10  C   -0.133820
    11  C   -0.127829
    12  H    0.351908
    13  H    0.167692
    14  H    0.146696
    15  H    0.224117
    16  H    0.122918
    17  H    0.168031
    18  H    0.146141
    19  H    0.133439
    20  H    0.145089
    21  H    0.348335
    22  N   -0.658077
    23  C   -0.014993
    24  C    0.627139
    25  O   -0.517162
    26  C   -0.307882
    27  C   -0.074900
    28  C   -0.449707
    29  C   -0.460139
    30  H    0.336232
    31  H    0.188183
    32  H    0.145102
    33  H    0.143398
    34  H    0.153555
    35  H    0.143120
    36  H    0.155567
    37  H    0.144527
    38  H    0.151812
    39  H    0.134516
    40  H    0.166187
    41  N   -0.607279
    42  C   -0.059175
    43  C    0.628896
    44  O   -0.554076
    45  C   -0.383821
    46  C    0.627423
    47  N   -0.737489
    48  O   -0.537082
    49  H    0.351771
    50  H    0.213099
    51  H    0.194385
    52  H    0.189075
    53  H    0.358592
    54  H    0.355305
    55  N   -0.622906
    56  C    0.012410
    57  C    0.586491
    58  O   -0.516355
    59  C   -0.275459
    60  C   -0.288446
    61  C   -0.167023
    62  N   -0.594421
    63  C    0.779704
    64  N   -0.752230
    65  N   -0.777710
    66  O   -0.617135
    67  H    0.488348
    68  H    0.389124
    69  H    0.142930
    70  H    0.188941
    71  H    0.167543
    72  H    0.146894
    73  H    0.176085
    74  H    0.165498
    75  H    0.207356
    76  H    0.389982
    77  H    0.380288
    78  H    0.386442
    79  H    0.370640
    80  H    0.408373
 Sum of Mulliken charges =   1.00000

 Dipole moment (field-independent basis, Debye):
    X=            -17.4996    Y=             59.5264    Z=            -47.5134  Tot=             78.1483
 Quadrupole moment (field-independent basis, Debye-Ang):
   XX=           -118.9957   YY=            573.9837   ZZ=            309.2456
   XY=           -202.7435   XZ=            221.7476   YZ=           -614.9508

 Normal termination of Gaussian 16 at Sat Jun 11 21:07:39 2022.
