 Gaussian 16, Revision C.01,
 Gaussian 16:  ES64L-G16RevC.01  3-Jul-2019

 ----------------------------------------------------------------------
 # B3LYP/6-31G* empiricaldispersion=gd3 guess=read geom=check nosymm in
 tegral(ultrafinegrid)
 ----------------------------------------------------------------------

 ------------------------------------------------------
 Candidate Structure: Conf:684 Charge calc in gas phase
 ------------------------------------------------------
 Structure from the checkpoint file:  "conf-684.chk"
 Charge =  1 Multiplicity = 1

                          Input orientation:
 ---------------------------------------------------------------------
 Center     Atomic      Atomic             Coordinates (Angstroms)
 Number     Number       Type             X           Y           Z
 ---------------------------------------------------------------------
      1          7           0       -1.635067   12.553468   -8.368743
      2          6           0       -1.630203   11.693599   -9.568411
      3          6           0       -2.908841   10.830720   -9.511995
      4          8           0       -4.004002   11.366132   -9.410649
      5          6           0       -0.296044   10.932823   -9.759448
      6          6           0        0.882049   11.878256   -9.849026
      7          6           0        1.144311   12.572758  -11.038456
      8          6           0        1.695117   12.124204   -8.734352
      9          6           0        2.195531   13.485984  -11.114245
     10          6           0        2.750013   13.037373   -8.807319
     11          6           0        3.002118   13.721009   -9.997528
     12          1           0       -0.812799   13.156401   -8.378062
     13          1           0       -1.774159   12.356883  -10.429229
     14          1           0       -0.357944   10.334087  -10.677614
     15          1           0       -0.151418   10.240634   -8.919151
     16          1           0        0.524617   12.389318  -11.913612
     17          1           0        1.512155   11.582001   -7.808799
     18          1           0        2.390692   14.007947  -12.046742
     19          1           0        3.382350   13.201998   -7.938748
     20          1           0        3.827747   14.424239  -10.060150
     21          1           0       -1.570854   11.978386   -7.524874
     22          7           0       -2.762367    9.472333   -9.540080
     23          6           0       -3.931557    8.593535   -9.609902
     24          6           0       -4.861077    8.754059   -8.394994
     25          8           0       -6.055986    8.517422   -8.489340
     26          6           0       -3.505677    7.125622   -9.764620
     27          6           0       -2.674692    6.795245  -11.021673
     28          6           0       -2.342360    5.295982  -11.036508
     29          6           0       -3.384267    7.214240  -12.316345
     30          1           0       -1.854344    9.063389   -9.701604
     31          1           0       -4.555313    8.896906  -10.455932
     32          1           0       -2.950193    6.820896   -8.866083
     33          1           0       -4.428312    6.533060   -9.778713
     34          1           0       -1.717174    7.340211  -10.969485
     35          1           0       -3.259200    4.698439  -11.113298
     36          1           0       -1.706189    5.042702  -11.891569
     37          1           0       -1.818861    4.990415  -10.122814
     38          1           0       -4.369676    6.737635  -12.389794
     39          1           0       -3.531009    8.298372  -12.375510
     40          1           0       -2.800690    6.911839  -13.192722
     41          7           0       -4.263689    9.131985   -7.222058
     42          6           0       -5.059777    9.846126   -6.239709
     43          6           0       -4.221517   11.062419   -5.802763
     44          8           0       -2.995690   11.102303   -5.985922
     45          6           0       -5.505118    8.931751   -5.078696
     46          6           0       -6.727163    9.459627   -4.328848
     47          7           0       -7.376633    8.546351   -3.565897
     48          8           0       -7.100887   10.633914   -4.382640
     49          1           0       -3.301478    9.447964   -7.267034
     50          1           0       -5.964057   10.208098   -6.739619
     51          1           0       -5.742986    7.957441   -5.518549
     52          1           0       -4.684810    8.768952   -4.367442
     53          1           0       -8.228539    8.833824   -3.102501
     54          1           0       -7.176646    7.558600   -3.623126
     55          7           0       -4.916546   12.085571   -5.275366
     56          6           0       -4.304293   13.367178   -4.958315
     57          6           0       -3.268479   13.700063   -6.053526
     58          8           0       -2.100644   14.033599   -5.798444
     59          6           0       -3.734985   13.405569   -3.526439
     60          6           0       -3.503601   14.836042   -2.967029
     61          6           0       -2.101501   15.065649   -2.381343
     62          7           0       -1.108627   14.969770   -3.464949
     63          6           0       -0.365065   15.970393   -3.932767
     64          7           0        0.120109   16.924194   -3.115518
     65          7           0       -0.094963   16.017171   -5.246702
     66          8           0       -3.749237   13.604702   -7.257103
     67          1           0       -2.971342   13.346535   -7.907908
     68          1           0       -5.895581   11.904832   -5.041556
     69          1           0       -5.100559   14.116334   -5.054632
     70          1           0       -2.818099   12.804262   -3.513635
     71          1           0       -4.447402   12.877279   -2.886279
     72          1           0       -3.665671   15.586761   -3.751279
     73          1           0       -4.235671   15.050624   -2.181156
     74          1           0       -2.039088   16.054919   -1.917950
     75          1           0       -1.868868   14.317887   -1.615714
     76          1           0       -1.393131   14.315922   -4.208777
     77          1           0        0.538311   17.766550   -3.481805
     78          1           0        0.150453   16.780093   -2.117227
     79          1           0        0.693660   16.533057   -5.608359
     80          1           0       -0.630510   15.416881   -5.872661
 ---------------------------------------------------------------------

 SCF Done:  E(RB3LYP) =  -1866.73750807     A.U. after    1 cycles

 Alpha  occ. eigenvalues --  -19.25400 -19.24199 -19.21042 -19.20470 -19.19229
 Alpha  occ. eigenvalues --  -19.17605 -14.51617 -14.50436 -14.49290 -14.44435
 Alpha  occ. eigenvalues --  -14.44258 -14.44072 -14.43227 -14.41738 -10.47089
 Alpha  occ. eigenvalues --  -10.41927 -10.37941 -10.37612 -10.36700 -10.35118
 Alpha  occ. eigenvalues --  -10.34752 -10.33653 -10.31869 -10.31105 -10.30366
 Alpha  occ. eigenvalues --  -10.30070 -10.29283 -10.28512 -10.28199 -10.28125
 Alpha  occ. eigenvalues --  -10.27312 -10.27219 -10.27034 -10.26959 -10.26893
 Alpha  occ. eigenvalues --  -10.26152 -10.25899 -10.23525 -10.23504  -1.18781
 Alpha  occ. eigenvalues --   -1.15570  -1.12719  -1.11919  -1.11568  -1.09875
 Alpha  occ. eigenvalues --   -1.09520  -1.04778  -1.03825  -1.01539  -1.00718
 Alpha  occ. eigenvalues --   -0.99648  -0.98881  -0.98635  -0.93645  -0.90847
 Alpha  occ. eigenvalues --   -0.88187  -0.86756  -0.86513  -0.84757  -0.82534
 Alpha  occ. eigenvalues --   -0.82355  -0.79891  -0.79570  -0.77692  -0.75683
 Alpha  occ. eigenvalues --   -0.74537  -0.73968  -0.72779  -0.72467  -0.71757
 Alpha  occ. eigenvalues --   -0.69756  -0.68798  -0.68688  -0.67317  -0.66960
 Alpha  occ. eigenvalues --   -0.66279  -0.65380  -0.64746  -0.64614  -0.64212
 Alpha  occ. eigenvalues --   -0.63250  -0.63118  -0.61803  -0.61541  -0.60909
 Alpha  occ. eigenvalues --   -0.59359  -0.58983  -0.58266  -0.57883  -0.57620
 Alpha  occ. eigenvalues --   -0.56489  -0.55814  -0.55259  -0.54802  -0.54469
 Alpha  occ. eigenvalues --   -0.54331  -0.53816  -0.53692  -0.53127  -0.52916
 Alpha  occ. eigenvalues --   -0.52391  -0.51819  -0.51218  -0.51046  -0.50609
 Alpha  occ. eigenvalues --   -0.50563  -0.50081  -0.49739  -0.49529  -0.48909
 Alpha  occ. eigenvalues --   -0.48338  -0.47778  -0.47686  -0.47252  -0.46900
 Alpha  occ. eigenvalues --   -0.46243  -0.45820  -0.45453  -0.45391  -0.45065
 Alpha  occ. eigenvalues --   -0.44711  -0.44557  -0.44375  -0.43834  -0.43453
 Alpha  occ. eigenvalues --   -0.43261  -0.42365  -0.42360  -0.42071  -0.41657
 Alpha  occ. eigenvalues --   -0.39728  -0.39576  -0.39360  -0.39240  -0.38867
 Alpha  occ. eigenvalues --   -0.38095  -0.36199  -0.35767  -0.35133  -0.34648
 Alpha  occ. eigenvalues --   -0.34354  -0.34201  -0.33513  -0.33162  -0.32244
 Alpha  occ. eigenvalues --   -0.31783  -0.30716
 Alpha virt. eigenvalues --   -0.11786  -0.09319  -0.08564  -0.08329  -0.07164
 Alpha virt. eigenvalues --   -0.06889  -0.06288  -0.05730  -0.03824  -0.03367
 Alpha virt. eigenvalues --   -0.01441  -0.01179  -0.00551   0.00277   0.00317

 Mulliken charges:
               1
     1  N   -0.799355
     2  C   -0.049963
     3  C    0.616463
     4  O   -0.501785
     5  C   -0.395307
     6  C    0.156123
     7  C   -0.176731
     8  C   -0.198547
     9  C   -0.128125
    10  C   -0.133648
    11  C   -0.130282
    12  H    0.331868
    13  H    0.185932
    14  H    0.165304
    15  H    0.151505
    16  H    0.140379
    17  H    0.128770
    18  H    0.151619
    19  H    0.135888
    20  H    0.145592
    21  H    0.360688
    22  N   -0.662736
    23  C   -0.015058
    24  C    0.615125
    25  O   -0.517460
    26  C   -0.302850
    27  C   -0.082612
    28  C   -0.442645
    29  C   -0.450432
    30  H    0.349784
    31  H    0.195722
    32  H    0.138511
    33  H    0.176831
    34  H    0.107125
    35  H    0.154535
    36  H    0.154164
    37  H    0.143651
    38  H    0.158484
    39  H    0.147052
    40  H    0.154784
    41  N   -0.614193
    42  C   -0.045074
    43  C    0.623890
    44  O   -0.579984
    45  C   -0.379364
    46  C    0.623847
    47  N   -0.737828
    48  O   -0.533175
    49  H    0.343202
    50  H    0.213593
    51  H    0.197797
    52  H    0.183649
    53  H    0.358283
    54  H    0.353547
    55  N   -0.610334
    56  C   -0.028931
    57  C    0.631090
    58  O   -0.578561
    59  C   -0.291388
    60  C   -0.287475
    61  C   -0.173587
    62  N   -0.599195
    63  C    0.777145
    64  N   -0.748855
    65  N   -0.772582
    66  O   -0.558145
    67  H    0.481252
    68  H    0.394198
    69  H    0.187735
    70  H    0.170808
    71  H    0.175940
    72  H    0.159819
    73  H    0.178636
    74  H    0.166219
    75  H    0.189944
    76  H    0.411430
    77  H    0.378229
    78  H    0.383344
    79  H    0.368053
    80  H    0.408656
 Sum of Mulliken charges =   1.00000

 Dipole moment (field-independent basis, Debye):
    X=             -3.2531    Y=             65.7597    Z=            -22.2738  Tot=             69.5057
 Quadrupole moment (field-independent basis, Debye-Ang):
   XX=           -204.7929   YY=            761.8063   ZZ=            -69.0676
   XY=             -7.4752   XZ=            -22.5159   YZ=           -280.9090

 Normal termination of Gaussian 16 at Sat Jun 11 21:06:55 2022.
