 Gaussian 16, Revision C.01,
 Gaussian 16:  ES64L-G16RevC.01  3-Jul-2019

 ----------------------------------------------------------------------
 # B3LYP/6-31G* empiricaldispersion=gd3 guess=read geom=check nosymm in
 tegral(ultrafinegrid)
 ----------------------------------------------------------------------

 ------------------------------------------------------
 Candidate Structure: Conf:538 Charge calc in gas phase
 ------------------------------------------------------
 Structure from the checkpoint file:  "conf-538.chk"
 Charge =  1 Multiplicity = 1

                          Input orientation:
 ---------------------------------------------------------------------
 Center     Atomic      Atomic             Coordinates (Angstroms)
 Number     Number       Type             X           Y           Z
 ---------------------------------------------------------------------
      1          7           0       -3.915631    9.849253   -4.934458
      2          6           0       -3.238747    9.094837   -6.008439
      3          6           0       -1.721077    9.300375   -5.794305
      4          8           0       -1.304652    9.939402   -4.836038
      5          6           0       -3.677171    9.595567   -7.395744
      6          6           0       -5.143818    9.466126   -7.764290
      7          6           0       -6.045344    8.609153   -7.120618
      8          6           0       -5.603242   10.197941   -8.873037
      9          6           0       -7.363769    8.478506   -7.573071
     10          6           0       -6.905847   10.051000   -9.344581
     11          6           0       -7.796872    9.189068   -8.693588
     12          1           0       -3.566174    9.539648   -4.028053
     13          1           0       -3.442398    8.014920   -5.925768
     14          1           0       -3.105415    9.042567   -8.152844
     15          1           0       -3.370064   10.638607   -7.501421
     16          1           0       -5.723146    8.006280   -6.275256
     17          1           0       -4.915956   10.872596   -9.378198
     18          1           0       -8.040754    7.798969   -7.062753
     19          1           0       -7.227697   10.607180  -10.221415
     20          1           0       -8.808509    9.057363   -9.068647
     21          1           0       -4.920650    9.693964   -4.968555
     22          7           0       -0.888361    8.762391   -6.728775
     23          6           0        0.570507    8.893175   -6.611300
     24          6           0        0.989355   10.371374   -6.491069
     25          8           0        1.915709   10.715993   -5.771171
     26          6           0        1.236182    8.202793   -7.814448
     27          6           0        2.771856    8.319801   -7.873623
     28          6           0        3.447347    7.793209   -6.599238
     29          6           0        3.290121    7.588951   -9.120296
     30          1           0       -1.256976    8.154608   -7.447610
     31          1           0        0.897229    8.435198   -5.674034
     32          1           0        0.961283    7.137526   -7.790925
     33          1           0        0.809092    8.624146   -8.736134
     34          1           0        3.023854    9.384573   -7.971803
     35          1           0        3.138773    6.760290   -6.389188
     36          1           0        4.536690    7.795137   -6.716026
     37          1           0        3.206103    8.417408   -5.734228
     38          1           0        2.823758    7.969870  -10.037193
     39          1           0        4.374216    7.710236   -9.219183
     40          1           0        3.081146    6.513086   -9.058694
     41          7           0        0.284569   11.248766   -7.267957
     42          6           0        0.164807   12.630384   -6.830509
     43          6           0       -1.290800   13.040569   -7.121592
     44          8           0       -2.027984   12.333699   -7.823777
     45          6           0        1.247487   13.534220   -7.454250
     46          6           0        1.496946   14.808781   -6.650188
     47          7           0        2.664071   15.443110   -6.918179
     48          8           0        0.696534   15.254944   -5.824478
     49          1           0       -0.550390   10.907830   -7.732989
     50          1           0        0.301575   12.656440   -5.743078
     51          1           0        2.167573   12.941610   -7.486296
     52          1           0        0.996296   13.798741   -8.489357
     53          1           0        2.898827   16.259959   -6.369874
     54          1           0        3.389170   15.021603   -7.479744
     55          7           0       -1.747809   14.141132   -6.495821
     56          6           0       -3.183260   14.353734   -6.366936
     57          6           0       -3.844797   13.014796   -5.953060
     58          8           0       -4.893897   12.590776   -6.456282
     59          6           0       -3.815503   14.980510   -7.627154
     60          6           0       -5.195571   15.655081   -7.388463
     61          6           0       -6.292878   15.213244   -8.371401
     62          7           0       -6.568631   13.786403   -8.151079
     63          6           0       -7.737062   13.222870   -7.877989
     64          7           0       -8.892441   13.701459   -8.377532
     65          7           0       -7.777381   12.139365   -7.072921
     66          8           0       -3.197829   12.389910   -5.016418
     67          1           0       -3.533113   11.398701   -4.941827
     68          1           0       -1.072675   14.674540   -5.943215
     69          1           0       -3.313922   15.035710   -5.517767
     70          1           0       -3.863663   14.202554   -8.396794
     71          1           0       -3.106779   15.725626   -7.998701
     72          1           0       -5.555631   15.448351   -6.372751
     73          1           0       -5.096173   16.743006   -7.464382
     74          1           0       -7.208551   15.791362   -8.206280
     75          1           0       -5.973255   15.370238   -9.407972
     76          1           0       -5.772198   13.280315   -7.731554
     77          1           0       -9.776232   13.438179   -7.966727
     78          1           0       -8.893972   14.428374   -9.077086
     79          1           0       -8.412275   11.385918   -7.308827
     80          1           0       -6.885741   11.831489   -6.691349
 ---------------------------------------------------------------------

 SCF Done:  E(RB3LYP) =  -1866.75226431     A.U. after    3 cycles

 Alpha  occ. eigenvalues --  -19.25886 -19.24085 -19.21196 -19.20524 -19.20316
 Alpha  occ. eigenvalues --  -19.18140 -14.50971 -14.48882 -14.48859 -14.45100
 Alpha  occ. eigenvalues --  -14.44561 -14.44095 -14.43933 -14.41997 -10.46151
 Alpha  occ. eigenvalues --  -10.41828 -10.37797 -10.37717 -10.37663 -10.35195
 Alpha  occ. eigenvalues --  -10.34911 -10.33691 -10.33231 -10.31349 -10.30659
 Alpha  occ. eigenvalues --  -10.30147 -10.30052 -10.29157 -10.29126 -10.29033
 Alpha  occ. eigenvalues --  -10.28934 -10.28898 -10.28669 -10.28608 -10.28046
 Alpha  occ. eigenvalues --  -10.26395 -10.25131 -10.23012 -10.22240  -1.19047
 Alpha  occ. eigenvalues --   -1.14809  -1.13044  -1.12724  -1.11802  -1.10047
 Alpha  occ. eigenvalues --   -1.09937  -1.04264  -1.02841  -1.01462  -1.01346
 Alpha  occ. eigenvalues --   -1.00647  -0.99010  -0.98715  -0.95435  -0.90579
 Alpha  occ. eigenvalues --   -0.88545  -0.87557  -0.86576  -0.84605  -0.84368
 Alpha  occ. eigenvalues --   -0.83189  -0.80513  -0.79201  -0.77100  -0.75870
 Alpha  occ. eigenvalues --   -0.74756  -0.73671  -0.72353  -0.71949  -0.71761
 Alpha  occ. eigenvalues --   -0.70456  -0.69586  -0.68280  -0.67827  -0.67281
 Alpha  occ. eigenvalues --   -0.67081  -0.65571  -0.64229  -0.64192  -0.63440
 Alpha  occ. eigenvalues --   -0.63096  -0.62348  -0.61996  -0.61372  -0.61204
 Alpha  occ. eigenvalues --   -0.60708  -0.59817  -0.58993  -0.58566  -0.58117
 Alpha  occ. eigenvalues --   -0.57506  -0.56068  -0.55579  -0.55302  -0.54892
 Alpha  occ. eigenvalues --   -0.54714  -0.54150  -0.53753  -0.53487  -0.53053
 Alpha  occ. eigenvalues --   -0.52261  -0.52213  -0.51831  -0.51691  -0.51176
 Alpha  occ. eigenvalues --   -0.50826  -0.50454  -0.49821  -0.49494  -0.49056
 Alpha  occ. eigenvalues --   -0.48763  -0.48431  -0.47980  -0.47929  -0.47365
 Alpha  occ. eigenvalues --   -0.46946  -0.46166  -0.45763  -0.45600  -0.45245
 Alpha  occ. eigenvalues --   -0.44934  -0.44661  -0.44318  -0.44286  -0.43782
 Alpha  occ. eigenvalues --   -0.43658  -0.43051  -0.42651  -0.41649  -0.41466
 Alpha  occ. eigenvalues --   -0.40172  -0.39408  -0.39077  -0.38529  -0.38385
 Alpha  occ. eigenvalues --   -0.38257  -0.37183  -0.35660  -0.35388  -0.35065
 Alpha  occ. eigenvalues --   -0.34849  -0.34467  -0.34379  -0.34174  -0.33967
 Alpha  occ. eigenvalues --   -0.32221  -0.31207
 Alpha virt. eigenvalues --   -0.11602  -0.10581  -0.10255  -0.09139  -0.06812
 Alpha virt. eigenvalues --   -0.06627  -0.06097  -0.05792  -0.04511  -0.02539
 Alpha virt. eigenvalues --   -0.01817  -0.01069  -0.00491   0.00075   0.00322

 Mulliken charges:
               1
     1  N   -0.785389
     2  C   -0.090050
     3  C    0.635752
     4  O   -0.506205
     5  C   -0.386862
     6  C    0.171602
     7  C   -0.206920
     8  C   -0.193511
     9  C   -0.137541
    10  C   -0.136437
    11  C   -0.170675
    12  H    0.355877
    13  H    0.162447
    14  H    0.157569
    15  H    0.234630
    16  H    0.137760
    17  H    0.150193
    18  H    0.155775
    19  H    0.144153
    20  H    0.149449
    21  H    0.333160
    22  N   -0.655956
    23  C   -0.010022
    24  C    0.628109
    25  O   -0.521805
    26  C   -0.306684
    27  C   -0.076128
    28  C   -0.461975
    29  C   -0.445217
    30  H    0.335809
    31  H    0.195210
    32  H    0.144560
    33  H    0.137419
    34  H    0.143524
    35  H    0.135469
    36  H    0.151742
    37  H    0.179527
    38  H    0.138949
    39  H    0.155461
    40  H    0.144670
    41  N   -0.618870
    42  C   -0.041908
    43  C    0.605444
    44  O   -0.563910
    45  C   -0.378558
    46  C    0.627137
    47  N   -0.738721
    48  O   -0.532635
    49  H    0.350512
    50  H    0.215605
    51  H    0.200386
    52  H    0.184815
    53  H    0.358717
    54  H    0.353827
    55  N   -0.607580
    56  C   -0.036652
    57  C    0.629886
    58  O   -0.571947
    59  C   -0.291592
    60  C   -0.294347
    61  C   -0.167076
    62  N   -0.606219
    63  C    0.749390
    64  N   -0.746894
    65  N   -0.756425
    66  O   -0.571027
    67  H    0.489394
    68  H    0.395623
    69  H    0.186104
    70  H    0.177760
    71  H    0.175043
    72  H    0.162641
    73  H    0.176947
    74  H    0.164538
    75  H    0.186277
    76  H    0.426918
    77  H    0.379865
    78  H    0.379386
    79  H    0.360323
    80  H    0.400385
 Sum of Mulliken charges =   1.00000

 Dipole moment (field-independent basis, Debye):
    X=            -26.4401    Y=             59.9861    Z=            -39.3338  Tot=             76.4498
 Quadrupole moment (field-independent basis, Debye-Ang):
   XX=             16.1498   YY=            582.0108   ZZ=             90.9608
   XY=           -327.3113   XZ=            201.3991   YZ=           -500.5464

 Normal termination of Gaussian 16 at Sat Jun 11 21:07:43 2022.
