 Gaussian 16, Revision C.01,
 Gaussian 16:  ES64L-G16RevC.01  3-Jul-2019

 ----------------------------------------------------------------------
 # B3LYP/6-31G* empiricaldispersion=gd3 guess=read geom=check nosymm in
 tegral(ultrafinegrid)
 ----------------------------------------------------------------------

 ------------------------------------------------------
 Candidate Structure: Conf:399 Charge calc in gas phase
 ------------------------------------------------------
 Structure from the checkpoint file:  "conf-399.chk"
 Charge =  1 Multiplicity = 1

                          Input orientation:
 ---------------------------------------------------------------------
 Center     Atomic      Atomic             Coordinates (Angstroms)
 Number     Number       Type             X           Y           Z
 ---------------------------------------------------------------------
      1          7           0       -4.700984    9.926587   -5.490197
      2          6           0       -3.374410    9.769207   -4.804136
      3          6           0       -3.000837   11.184696   -4.316677
      4          8           0       -3.848110   12.073227   -4.340134
      5          6           0       -2.377886    9.077156   -5.754800
      6          6           0       -2.853382    7.685112   -6.121830
      7          6           0       -2.576507    6.601335   -5.276235
      8          6           0       -3.629974    7.468746   -7.269763
      9          6           0       -3.059683    5.326225   -5.568924
     10          6           0       -4.117498    6.191118   -7.559244
     11          6           0       -3.834878    5.118465   -6.712647
     12          1           0       -5.289574   10.553364   -4.929675
     13          1           0       -3.540111    9.135218   -3.924334
     14          1           0       -1.411349    9.007993   -5.242772
     15          1           0       -2.225626    9.711047   -6.633811
     16          1           0       -1.968663    6.754948   -4.386420
     17          1           0       -3.853731    8.290524   -7.945627
     18          1           0       -2.828305    4.495602   -4.908213
     19          1           0       -4.714890    6.036975   -8.453837
     20          1           0       -4.210908    4.125708   -6.942603
     21          1           0       -5.147126    9.018026   -5.635635
     22          7           0       -1.747280   11.366412   -3.842429
     23          6           0       -1.293683   12.695291   -3.399775
     24          6           0       -1.447108   13.728518   -4.536341
     25          8           0       -1.844276   14.865582   -4.323825
     26          6           0        0.153338   12.593775   -2.891730
     27          6           0        0.791086   13.934057   -2.475787
     28          6           0       -0.040669   14.671956   -1.416717
     29          6           0        2.224213   13.685594   -1.984930
     30          1           0       -1.079519   10.607866   -3.860113
     31          1           0       -1.961187   13.040688   -2.607575
     32          1           0        0.167606   11.906511   -2.033352
     33          1           0        0.770419   12.137344   -3.680088
     34          1           0        0.841622   14.572058   -3.368980
     35          1           0        0.489959   15.565335   -1.069650
     36          1           0       -1.004326   14.995641   -1.820680
     37          1           0       -0.219301   14.032334   -0.542025
     38          1           0        2.721269   14.631188   -1.743259
     39          1           0        2.225543   13.068535   -1.077169
     40          1           0        2.828907   13.171484   -2.741994
     41          7           0       -1.085387   13.275382   -5.769644
     42          6           0       -1.696795   13.836964   -6.960715
     43          6           0       -1.830039   12.654866   -7.945869
     44          8           0       -1.314119   11.559419   -7.690750
     45          6           0       -0.923201   15.064093   -7.487531
     46          6           0       -1.792982   16.010399   -8.311571
     47          7           0       -1.330471   17.280503   -8.413569
     48          8           0       -2.834841   15.658237   -8.870600
     49          1           0       -0.869118   12.289768   -5.887404
     50          1           0       -2.712144   14.166224   -6.707820
     51          1           0       -0.540899   15.595650   -6.610548
     52          1           0       -0.056343   14.758084   -8.086992
     53          1           0       -1.898790   17.956155   -8.906725
     54          1           0       -0.566331   17.621757   -7.849430
     55          7           0       -2.573113   12.884550   -9.047214
     56          6           0       -3.165445   11.765729   -9.761522
     57          6           0       -4.085082   10.923010   -8.821193
     58          8           0       -4.668820    9.914647   -9.335159
     59          6           0       -2.093093   10.907513  -10.509435
     60          6           0       -2.183004   10.954169  -12.051285
     61          6           0       -3.089276    9.874379  -12.666926
     62          7           0       -4.392019    9.811465  -12.000404
     63          6           0       -5.546234   10.321490  -12.403846
     64          7           0       -5.822866   10.569999  -13.699859
     65          7           0       -6.482178   10.600364  -11.472480
     66          8           0       -4.211456   11.304166   -7.634217
     67          1           0       -4.579277   10.428023   -6.460049
     68          1           0       -2.989954   13.815480   -9.114315
     69          1           0       -3.840356   12.208170  -10.503782
     70          1           0       -2.131608    9.869500  -10.159247
     71          1           0       -1.116784   11.282223  -10.202379
     72          1           0       -2.521555   11.947345  -12.374254
     73          1           0       -1.185475   10.811469  -12.483856
     74          1           0       -3.213533   10.040637  -13.741433
     75          1           0       -2.628132    8.887986  -12.550829
     76          1           0       -4.359690    9.662293  -10.965014
     77          1           0       -6.596274   11.165308  -13.955979
     78          1           0       -5.183899   10.297454  -14.430216
     79          1           0       -7.461166   10.591991  -11.721415
     80          1           0       -6.228709   10.410242  -10.500374
 ---------------------------------------------------------------------

 SCF Done:  E(RB3LYP) =  -1866.74913245     A.U. after    1 cycles

 Alpha  occ. eigenvalues --  -19.22009 -19.20595 -19.20532 -19.20071 -19.19855
 Alpha  occ. eigenvalues --  -19.18281 -14.52147 -14.50253 -14.48588 -14.47947
 Alpha  occ. eigenvalues --  -14.46295 -14.43761 -14.42598 -14.41895 -10.45648
 Alpha  occ. eigenvalues --  -10.39334 -10.38141 -10.37545 -10.36531 -10.35847
 Alpha  occ. eigenvalues --  -10.35294 -10.34070 -10.31829 -10.31121 -10.30876
 Alpha  occ. eigenvalues --  -10.29424 -10.28884 -10.28479 -10.27679 -10.27646
 Alpha  occ. eigenvalues --  -10.27355 -10.27113 -10.27102 -10.26927 -10.26845
 Alpha  occ. eigenvalues --  -10.26719 -10.25402 -10.23169 -10.22492  -1.14505
 Alpha  occ. eigenvalues --   -1.14319  -1.13689  -1.11806  -1.11373  -1.10023
 Alpha  occ. eigenvalues --   -1.07481  -1.04983  -1.03311  -1.02590  -1.02219
 Alpha  occ. eigenvalues --   -0.99995  -0.98997  -0.98503  -0.94041  -0.89456
 Alpha  occ. eigenvalues --   -0.89316  -0.87826  -0.85904  -0.83590  -0.83126
 Alpha  occ. eigenvalues --   -0.82533  -0.80891  -0.78328  -0.76184  -0.75555
 Alpha  occ. eigenvalues --   -0.75040  -0.73897  -0.72173  -0.71246  -0.70647
 Alpha  occ. eigenvalues --   -0.69239  -0.68818  -0.68295  -0.67435  -0.67061
 Alpha  occ. eigenvalues --   -0.66968  -0.66184  -0.64940  -0.64020  -0.63317
 Alpha  occ. eigenvalues --   -0.62893  -0.62393  -0.62251  -0.61778  -0.61106
 Alpha  occ. eigenvalues --   -0.60139  -0.59497  -0.58876  -0.58473  -0.56976
 Alpha  occ. eigenvalues --   -0.56429  -0.56074  -0.55506  -0.54470  -0.54209
 Alpha  occ. eigenvalues --   -0.53916  -0.53656  -0.53527  -0.52879  -0.52660
 Alpha  occ. eigenvalues --   -0.52360  -0.51648  -0.51279  -0.51079  -0.50482
 Alpha  occ. eigenvalues --   -0.50390  -0.50168  -0.49460  -0.49116  -0.48886
 Alpha  occ. eigenvalues --   -0.48801  -0.48687  -0.47947  -0.47333  -0.46725
 Alpha  occ. eigenvalues --   -0.46302  -0.46117  -0.45282  -0.45050  -0.44789
 Alpha  occ. eigenvalues --   -0.44374  -0.44026  -0.43670  -0.43554  -0.43157
 Alpha  occ. eigenvalues --   -0.42874  -0.42435  -0.42003  -0.41748  -0.40888
 Alpha  occ. eigenvalues --   -0.39361  -0.38752  -0.38533  -0.38026  -0.36805
 Alpha  occ. eigenvalues --   -0.36589  -0.36455  -0.35998  -0.35159  -0.34612
 Alpha  occ. eigenvalues --   -0.34162  -0.33590  -0.33267  -0.32932  -0.32745
 Alpha  occ. eigenvalues --   -0.31657  -0.31304
 Alpha virt. eigenvalues --   -0.10059  -0.09215  -0.08593  -0.07849  -0.06657
 Alpha virt. eigenvalues --   -0.06188  -0.05641  -0.05494  -0.04712  -0.03143
 Alpha virt. eigenvalues --   -0.02550  -0.01951   0.00009   0.00542   0.00839

 Mulliken charges:
               1
     1  N   -0.763827
     2  C   -0.116010
     3  C    0.667268
     4  O   -0.516472
     5  C   -0.409597
     6  C    0.138458
     7  C   -0.182283
     8  C   -0.234153
     9  C   -0.126136
    10  C   -0.138339
    11  C   -0.126722
    12  H    0.401081
    13  H    0.202022
    14  H    0.158526
    15  H    0.239615
    16  H    0.129798
    17  H    0.186588
    18  H    0.151864
    19  H    0.140021
    20  H    0.150149
    21  H    0.388693
    22  N   -0.652300
    23  C   -0.021225
    24  C    0.627066
    25  O   -0.522551
    26  C   -0.306088
    27  C   -0.077219
    28  C   -0.463415
    29  C   -0.445622
    30  H    0.342536
    31  H    0.199922
    32  H    0.149460
    33  H    0.137174
    34  H    0.144091
    35  H    0.152873
    36  H    0.179076
    37  H    0.136792
    38  H    0.156254
    39  H    0.145612
    40  H    0.140891
    41  N   -0.618732
    42  C   -0.044763
    43  C    0.620523
    44  O   -0.565960
    45  C   -0.377236
    46  C    0.627943
    47  N   -0.739456
    48  O   -0.533318
    49  H    0.346425
    50  H    0.208536
    51  H    0.197025
    52  H    0.186299
    53  H    0.356110
    54  H    0.353884
    55  N   -0.612920
    56  C   -0.057291
    57  C    0.642340
    58  O   -0.619523
    59  C   -0.287508
    60  C   -0.275623
    61  C   -0.170178
    62  N   -0.609876
    63  C    0.776681
    64  N   -0.759717
    65  N   -0.778055
    66  O   -0.576667
    67  H    0.451760
    68  H    0.388190
    69  H    0.152854
    70  H    0.160808
    71  H    0.192253
    72  H    0.153945
    73  H    0.168040
    74  H    0.151717
    75  H    0.191410
    76  H    0.416807
    77  H    0.376304
    78  H    0.378967
    79  H    0.361689
    80  H    0.402445
 Sum of Mulliken charges =   1.00000

 Dipole moment (field-independent basis, Debye):
    X=            -18.1089    Y=             50.2124    Z=            -45.9173  Tot=             70.4104
 Quadrupole moment (field-independent basis, Debye-Ang):
   XX=           -113.6440   YY=            343.6080   ZZ=            312.4823
   XY=           -163.5023   XZ=            211.9536   YZ=           -501.0909

 Normal termination of Gaussian 16 at Sat Jun 11 21:06:57 2022.
