 Gaussian 16, Revision C.01,
 Gaussian 16:  ES64L-G16RevC.01  3-Jul-2019

 ----------------------------------------------------------------------
 # B3LYP/6-31G* empiricaldispersion=gd3 guess=read geom=check nosymm in
 tegral(ultrafinegrid)
 ----------------------------------------------------------------------

 ------------------------------------------------------
 Candidate Structure: Conf:156 Charge calc in gas phase
 ------------------------------------------------------
 Structure from the checkpoint file:  "conf-156.chk"
 Charge =  1 Multiplicity = 1

                          Input orientation:
 ---------------------------------------------------------------------
 Center     Atomic      Atomic             Coordinates (Angstroms)
 Number     Number       Type             X           Y           Z
 ---------------------------------------------------------------------
      1          7           0       -3.039849    9.555390   -7.445740
      2          6           0       -2.861557    8.633215   -6.308775
      3          6           0       -3.281645    9.216303   -4.951788
      4          8           0       -3.550261    8.448345   -4.036810
      5          6           0       -1.399803    8.119892   -6.174319
      6          6           0       -0.800664    7.673998   -7.491395
      7          6           0       -1.377922    6.628956   -8.232958
      8          6           0        0.328004    8.316006   -8.017151
      9          6           0       -0.837458    6.233033   -9.456211
     10          6           0        0.889527    7.907052   -9.231569
     11          6           0        0.305509    6.866019   -9.958297
     12          1           0       -2.831771    9.048290   -8.305799
     13          1           0       -3.529782    7.785332   -6.479106
     14          1           0       -1.401087    7.305293   -5.441772
     15          1           0       -0.788175    8.925835   -5.749147
     16          1           0       -2.249414    6.110587   -7.839660
     17          1           0        0.792435    9.123159   -7.455552
     18          1           0       -1.292404    5.414952  -10.007350
     19          1           0        1.796206    8.387527   -9.592662
     20          1           0        0.751378    6.525758  -10.889710
     21          1           0       -2.340631   10.301430   -7.422245
     22          7           0       -3.220574   10.570675   -4.820235
     23          6           0       -3.617943   11.252568   -3.575236
     24          6           0       -4.479165   12.442908   -4.023495
     25          8           0       -5.696054   12.418554   -3.995271
     26          6           0       -2.410800   11.626215   -2.697507
     27          6           0       -1.633955   10.429418   -2.113247
     28          6           0       -0.342437   10.929640   -1.449480
     29          6           0       -2.479114    9.616289   -1.123024
     30          1           0       -3.090964   11.157115   -5.638396
     31          1           0       -4.285994   10.578899   -3.038169
     32          1           0       -1.712755   12.239158   -3.286709
     33          1           0       -2.766157   12.262602   -1.874655
     34          1           0       -1.357708    9.767407   -2.945837
     35          1           0       -0.568871   11.601450   -0.611488
     36          1           0        0.243097   10.092846   -1.052870
     37          1           0        0.291641   11.479337   -2.156685
     38          1           0       -2.841030   10.252688   -0.304771
     39          1           0       -3.334880    9.147829   -1.615294
     40          1           0       -1.879055    8.814292   -0.678581
     41          7           0       -3.765906   13.514363   -4.550621
     42          6           0       -4.369948   14.276224   -5.628325
     43          6           0       -3.867703   13.671767   -6.962512
     44          8           0       -2.902065   12.889448   -6.988292
     45          6           0       -4.094075   15.789025   -5.490933
     46          6           0       -5.148180   16.655092   -6.182162
     47          7           0       -5.243917   17.926625   -5.728875
     48          8           0       -5.854979   16.243975   -7.105747
     49          1           0       -2.774742   13.350141   -4.684771
     50          1           0       -5.448400   14.109218   -5.559809
     51          1           0       -4.063935   16.020336   -4.420963
     52          1           0       -3.107391   16.050944   -5.896585
     53          1           0       -5.949908   18.527222   -6.134145
     54          1           0       -4.758866   18.248289   -4.904281
     55          7           0       -4.567554   13.993289   -8.063103
     56          6           0       -4.298741   13.369383   -9.351910
     57          6           0       -3.976809   11.880648   -9.117151
     58          8           0       -3.009736   11.313207   -9.642265
     59          6           0       -3.197403   14.114805  -10.135420
     60          6           0       -3.083893   13.727004  -11.636755
     61          6           0       -1.647160   13.416645  -12.093651
     62          7           0       -1.175208   12.231797  -11.360909
     63          6           0       -0.613664   11.137148  -11.861300
     64          7           0        0.164224   11.179612  -12.958139
     65          7           0       -0.836283    9.958748  -11.251495
     66          8           0       -4.823641   11.272275   -8.332472
     67          1           0       -4.335730   10.445078   -7.939766
     68          1           0       -5.292718   14.709612   -7.960672
     69          1           0       -5.239485   13.400270   -9.915881
     70          1           0       -2.253179   13.958749   -9.600332
     71          1           0       -3.415498   15.183457  -10.050622
     72          1           0       -3.702820   12.848621  -11.855223
     73          1           0       -3.466928   14.539985  -12.261964
     74          1           0       -1.623045   13.214662  -13.170188
     75          1           0       -0.984015   14.265629  -11.890253
     76          1           0       -1.727641   12.044599  -10.512409
     77          1           0        0.412153   10.335824  -13.453479
     78          1           0        0.493366   12.059384  -13.326640
     79          1           0       -0.157026    9.208097  -11.254326
     80          1           0       -1.530994    9.930164  -10.512843
 ---------------------------------------------------------------------

 SCF Done:  E(RB3LYP) =  -1866.73769117     A.U. after    3 cycles

 Alpha  occ. eigenvalues --  -19.27295 -19.25410 -19.22536 -19.21787 -19.19457
 Alpha  occ. eigenvalues --  -19.18553 -14.51826 -14.50236 -14.49629 -14.45691
 Alpha  occ. eigenvalues --  -14.45433 -14.44567 -14.43652 -14.43637 -10.47233
 Alpha  occ. eigenvalues --  -10.43323 -10.39357 -10.38950 -10.36334 -10.36222
 Alpha  occ. eigenvalues --  -10.35704 -10.34947 -10.32667 -10.31943 -10.31063
 Alpha  occ. eigenvalues --  -10.30300 -10.30067 -10.29911 -10.29670 -10.29296
 Alpha  occ. eigenvalues --  -10.29078 -10.28909 -10.28858 -10.28668 -10.28342
 Alpha  occ. eigenvalues --  -10.25467 -10.24664 -10.22852 -10.21643  -1.20477
 Alpha  occ. eigenvalues --   -1.15756  -1.14114  -1.13287  -1.11463  -1.11388
 Alpha  occ. eigenvalues --   -1.10606  -1.05105  -1.03887  -1.02863  -1.01398
 Alpha  occ. eigenvalues --   -1.00789  -1.00217  -0.99109  -0.95298  -0.91634
 Alpha  occ. eigenvalues --   -0.88275  -0.87579  -0.86931  -0.85833  -0.84264
 Alpha  occ. eigenvalues --   -0.82588  -0.80862  -0.80262  -0.78154  -0.76525
 Alpha  occ. eigenvalues --   -0.74500  -0.73485  -0.73183  -0.72824  -0.72107
 Alpha  occ. eigenvalues --   -0.70760  -0.70329  -0.69090  -0.68260  -0.67713
 Alpha  occ. eigenvalues --   -0.66547  -0.66374  -0.65975  -0.65154  -0.64544
 Alpha  occ. eigenvalues --   -0.64503  -0.63618  -0.62514  -0.61725  -0.61580
 Alpha  occ. eigenvalues --   -0.60631  -0.60348  -0.59253  -0.58560  -0.57965
 Alpha  occ. eigenvalues --   -0.57551  -0.56957  -0.56140  -0.55738  -0.55179
 Alpha  occ. eigenvalues --   -0.54996  -0.54798  -0.54704  -0.53926  -0.53372
 Alpha  occ. eigenvalues --   -0.53188  -0.53012  -0.52303  -0.51960  -0.51768
 Alpha  occ. eigenvalues --   -0.51391  -0.50867  -0.50783  -0.50410  -0.49738
 Alpha  occ. eigenvalues --   -0.48782  -0.48677  -0.48405  -0.47586  -0.47302
 Alpha  occ. eigenvalues --   -0.46927  -0.46692  -0.46131  -0.45947  -0.45874
 Alpha  occ. eigenvalues --   -0.45528  -0.45151  -0.44715  -0.44599  -0.43627
 Alpha  occ. eigenvalues --   -0.43454  -0.43208  -0.42703  -0.42463  -0.41843
 Alpha  occ. eigenvalues --   -0.41291  -0.40226  -0.39236  -0.38874  -0.38101
 Alpha  occ. eigenvalues --   -0.37986  -0.37605  -0.37001  -0.36441  -0.35847
 Alpha  occ. eigenvalues --   -0.35722  -0.35049  -0.34584  -0.34361  -0.33843
 Alpha  occ. eigenvalues --   -0.32148  -0.31244
 Alpha virt. eigenvalues --   -0.12055  -0.10615  -0.10435  -0.10273  -0.08188
 Alpha virt. eigenvalues --   -0.07346  -0.07053  -0.06712  -0.04158  -0.03730
 Alpha virt. eigenvalues --   -0.02504  -0.01396  -0.00989  -0.00621  -0.00167

 Mulliken charges:
               1
     1  N   -0.799179
     2  C   -0.070070
     3  C    0.640592
     4  O   -0.511966
     5  C   -0.372185
     6  C    0.157486
     7  C   -0.191170
     8  C   -0.194433
     9  C   -0.125515
    10  C   -0.158238
    11  C   -0.159529
    12  H    0.338070
    13  H    0.185850
    14  H    0.203447
    15  H    0.156470
    16  H    0.156196
    17  H    0.142649
    18  H    0.158765
    19  H    0.142719
    20  H    0.146393
    21  H    0.337720
    22  N   -0.657465
    23  C   -0.055643
    24  C    0.565662
    25  O   -0.473971
    26  C   -0.256935
    27  C   -0.071129
    28  C   -0.445401
    29  C   -0.461014
    30  H    0.361460
    31  H    0.210639
    32  H    0.112507
    33  H    0.152588
    34  H    0.129241
    35  H    0.146673
    36  H    0.152327
    37  H    0.130078
    38  H    0.137093
    39  H    0.183860
    40  H    0.147696
    41  N   -0.589557
    42  C   -0.078675
    43  C    0.620440
    44  O   -0.579568
    45  C   -0.387938
    46  C    0.628637
    47  N   -0.737059
    48  O   -0.530402
    49  H    0.332067
    50  H    0.227172
    51  H    0.193966
    52  H    0.185840
    53  H    0.363251
    54  H    0.356446
    55  N   -0.606375
    56  C   -0.034567
    57  C    0.645587
    58  O   -0.576721
    59  C   -0.293195
    60  C   -0.298387
    61  C   -0.164488
    62  N   -0.606034
    63  C    0.773649
    64  N   -0.750268
    65  N   -0.773734
    66  O   -0.567373
    67  H    0.466626
    68  H    0.398793
    69  H    0.194197
    70  H    0.173011
    71  H    0.174999
    72  H    0.168624
    73  H    0.179817
    74  H    0.171151
    75  H    0.185581
    76  H    0.414973
    77  H    0.380691
    78  H    0.382765
    79  H    0.366635
    80  H    0.397088
 Sum of Mulliken charges =   1.00000

 Dipole moment (field-independent basis, Debye):
    X=             -4.1795    Y=             61.4629    Z=            -50.9774  Tot=             79.9616
 Quadrupole moment (field-independent basis, Debye-Ang):
   XX=           -226.5299   YY=            628.1544   ZZ=            354.2466
   XY=            -89.8792   XZ=             42.5415   YZ=           -603.4697

 Normal termination of Gaussian 16 at Sat Jun 11 21:08:15 2022.
