 Gaussian 16, Revision C.01,
 Gaussian 16:  ES64L-G16RevC.01  3-Jul-2019

 ----------------------------------------------------------------------
 # B3LYP/6-31G* empiricaldispersion=gd3 guess=read geom=check nosymm in
 tegral(ultrafinegrid)
 ----------------------------------------------------------------------

 ------------------------------------------------------
 Candidate Structure: Conf:320 Charge calc in gas phase
 ------------------------------------------------------
 Structure from the checkpoint file:  "conf-320.chk"
 Charge =  1 Multiplicity = 1

                          Input orientation:
 ---------------------------------------------------------------------
 Center     Atomic      Atomic             Coordinates (Angstroms)
 Number     Number       Type             X           Y           Z
 ---------------------------------------------------------------------
      1          7           0       -1.730737    9.945436   -4.844924
      2          6           0       -1.045158   11.215563   -5.156984
      3          6           0       -2.032737   12.344633   -4.782082
      4          8           0       -3.104512   12.087208   -4.247547
      5          6           0       -0.654984   11.281097   -6.643595
      6          6           0        0.307250   10.231745   -7.169535
      7          6           0        1.155858    9.465777   -6.360438
      8          6           0        0.405487   10.078700   -8.563357
      9          6           0        2.081853    8.579557   -6.923529
     10          6           0        1.344128    9.219124   -9.129840
     11          6           0        2.188989    8.460931   -8.310102
     12          1           0       -2.034208    9.953585   -3.871562
     13          1           0       -0.145096   11.345857   -4.534340
     14          1           0       -0.194441   12.260268   -6.831742
     15          1           0       -1.567630   11.265218   -7.243870
     16          1           0        1.128871    9.572809   -5.278884
     17          1           0       -0.252953   10.661541   -9.203227
     18          1           0        2.736485    8.004397   -6.274560
     19          1           0        1.419215    9.140322  -10.211475
     20          1           0        2.935219    7.802825   -8.747711
     21          1           0       -1.103663    9.156863   -4.987148
     22          7           0       -1.659248   13.618609   -5.086493
     23          6           0       -2.527465   14.754022   -4.749490
     24          6           0       -3.906129   14.621528   -5.432150
     25          8           0       -4.918952   15.043484   -4.894621
     26          6           0       -1.869328   16.097510   -5.110373
     27          6           0       -0.826934   16.635892   -4.108822
     28          6           0        0.381427   15.707707   -3.911844
     29          6           0       -0.364122   18.031547   -4.552317
     30          1           0       -0.732353   13.806392   -5.439881
     31          1           0       -2.757058   14.726385   -3.679125
     32          1           0       -1.426510   16.025499   -6.115945
     33          1           0       -2.678237   16.833106   -5.184762
     34          1           0       -1.334232   16.736251   -3.138230
     35          1           0        0.891522   15.517756   -4.867970
     36          1           0        1.115976   16.168468   -3.242543
     37          1           0        0.096837   14.746225   -3.471328
     38          1           0        0.329709   18.464950   -3.823777
     39          1           0        0.155017   17.982491   -5.518496
     40          1           0       -1.210687   18.718884   -4.661216
     41          7           0       -3.902243   14.044142   -6.670846
     42          6           0       -5.093011   13.347432   -7.129654
     43          6           0       -4.586144   12.095448   -7.869475
     44          8           0       -3.394943   11.979473   -8.191973
     45          6           0       -6.028641   14.263873   -7.942696
     46          6           0       -7.466039   13.749834   -7.997134
     47          7           0       -8.390386   14.658652   -8.393257
     48          8           0       -7.780759   12.589781   -7.720620
     49          1           0       -3.041821   13.619883   -6.999162
     50          1           0       -5.651115   13.008004   -6.249312
     51          1           0       -6.014471   15.240452   -7.447571
     52          1           0       -5.652185   14.411248   -8.962966
     53          1           0       -9.363364   14.382591   -8.384052
     54          1           0       -8.174950   15.640918   -8.480825
     55          7           0       -5.470357   11.097450   -8.052365
     56          6           0       -4.990700    9.753325   -8.343791
     57          6           0       -3.799664    9.440412   -7.402822
     58          8           0       -2.758739    8.889180   -7.785051
     59          6           0       -4.658472    9.542138   -9.835798
     60          6           0       -4.605349    8.053422  -10.280196
     61          6           0       -3.331865    7.670456  -11.052952
     62          7           0       -2.181441    7.798826  -10.147205
     63          6           0       -1.282620    6.871910   -9.846943
     64          7           0       -0.886847    5.947279  -10.742421
     65          7           0       -0.747320    6.846133   -8.607321
     66          8           0       -4.008682    9.797890   -6.171956
     67          1           0       -3.108775    9.788753   -5.632253
     68          1           0       -6.439066   11.278923   -7.781866
     69          1           0       -5.799330    9.072121   -8.051643
     70          1           0       -3.721289   10.069312  -10.044870
     71          1           0       -5.429924   10.064408  -10.408212
     72          1           0       -4.679867    7.388214   -9.410728
     73          1           0       -5.465691    7.824314  -10.917797
     74          1           0       -3.399486    6.637952  -11.412635
     75          1           0       -3.191571    8.324954  -11.920868
     76          1           0       -2.348717    8.460207   -9.371900
     77          1           0       -0.414514    5.108560  -10.438145
     78          1           0       -1.167933    6.007437  -11.709446
     79          1           0        0.241412    6.646792   -8.512248
     80          1           0       -1.099036    7.541596   -7.953023
 ---------------------------------------------------------------------

 SCF Done:  E(RB3LYP) =  -1866.74999969     A.U. after    3 cycles

 Alpha  occ. eigenvalues --  -19.25853 -19.24048 -19.21150 -19.20443 -19.20232
 Alpha  occ. eigenvalues --  -19.17860 -14.50952 -14.48863 -14.48832 -14.44957
 Alpha  occ. eigenvalues --  -14.44505 -14.44103 -14.43838 -14.41885 -10.46130
 Alpha  occ. eigenvalues --  -10.41804 -10.37709 -10.37627 -10.37627 -10.34993
 Alpha  occ. eigenvalues --  -10.34889 -10.33673 -10.33178 -10.31289 -10.30640
 Alpha  occ. eigenvalues --  -10.30125 -10.30021 -10.29131 -10.29100 -10.29002
 Alpha  occ. eigenvalues --  -10.28912 -10.28875 -10.28651 -10.28577 -10.27923
 Alpha  occ. eigenvalues --  -10.26357 -10.26074 -10.24664 -10.23573  -1.19011
 Alpha  occ. eigenvalues --   -1.14787  -1.12997  -1.12655  -1.11716  -1.09986
 Alpha  occ. eigenvalues --   -1.09765  -1.04243  -1.02820  -1.01420  -1.01300
 Alpha  occ. eigenvalues --   -1.00596  -0.98887  -0.98624  -0.95406  -0.90553
 Alpha  occ. eigenvalues --   -0.88687  -0.87667  -0.86637  -0.84649  -0.84339
 Alpha  occ. eigenvalues --   -0.83320  -0.80936  -0.79182  -0.77078  -0.75852
 Alpha  occ. eigenvalues --   -0.75311  -0.74646  -0.72338  -0.71916  -0.71728
 Alpha  occ. eigenvalues --   -0.70414  -0.69554  -0.68260  -0.67803  -0.67224
 Alpha  occ. eigenvalues --   -0.67046  -0.65553  -0.64221  -0.64155  -0.63747
 Alpha  occ. eigenvalues --   -0.63065  -0.62921  -0.62036  -0.61510  -0.61153
 Alpha  occ. eigenvalues --   -0.60715  -0.59820  -0.58931  -0.58554  -0.58084
 Alpha  occ. eigenvalues --   -0.57463  -0.56064  -0.55556  -0.55248  -0.54784
 Alpha  occ. eigenvalues --   -0.54335  -0.54032  -0.53821  -0.53503  -0.52860
 Alpha  occ. eigenvalues --   -0.52750  -0.52180  -0.51903  -0.51683  -0.51317
 Alpha  occ. eigenvalues --   -0.50809  -0.50704  -0.50130  -0.49593  -0.49071
 Alpha  occ. eigenvalues --   -0.48925  -0.48382  -0.48119  -0.47875  -0.47550
 Alpha  occ. eigenvalues --   -0.46843  -0.46378  -0.45960  -0.45543  -0.45414
 Alpha  occ. eigenvalues --   -0.45185  -0.45142  -0.44596  -0.44219  -0.44176
 Alpha  occ. eigenvalues --   -0.43679  -0.43353  -0.43236  -0.41856  -0.41448
 Alpha  occ. eigenvalues --   -0.40148  -0.39758  -0.39444  -0.39385  -0.39317
 Alpha  occ. eigenvalues --   -0.38330  -0.37145  -0.35642  -0.35317  -0.35034
 Alpha  occ. eigenvalues --   -0.34778  -0.34414  -0.34362  -0.34141  -0.33941
 Alpha  occ. eigenvalues --   -0.32036  -0.30936
 Alpha virt. eigenvalues --   -0.11575  -0.10548  -0.10240  -0.09103  -0.06800
 Alpha virt. eigenvalues --   -0.06554  -0.06077  -0.05700  -0.04272  -0.02551
 Alpha virt. eigenvalues --   -0.01869  -0.01131  -0.00468   0.00091   0.00383

 Mulliken charges:
               1
     1  N   -0.785376
     2  C   -0.090354
     3  C    0.632590
     4  O   -0.507112
     5  C   -0.389532
     6  C    0.171630
     7  C   -0.206500
     8  C   -0.193703
     9  C   -0.137574
    10  C   -0.136437
    11  C   -0.170709
    12  H    0.356239
    13  H    0.163650
    14  H    0.158080
    15  H    0.234978
    16  H    0.137914
    17  H    0.150768
    18  H    0.155604
    19  H    0.143974
    20  H    0.149176
    21  H    0.332993
    22  N   -0.649104
    23  C   -0.012674
    24  C    0.607793
    25  O   -0.518013
    26  C   -0.308500
    27  C   -0.069155
    28  C   -0.464316
    29  C   -0.446470
    30  H    0.340082
    31  H    0.192299
    32  H    0.132646
    33  H    0.178237
    34  H    0.145238
    35  H    0.128796
    36  H    0.164597
    37  H    0.143959
    38  H    0.156126
    39  H    0.142203
    40  H    0.153997
    41  N   -0.618356
    42  C   -0.038187
    43  C    0.604240
    44  O   -0.563493
    45  C   -0.379585
    46  C    0.625950
    47  N   -0.738866
    48  O   -0.532841
    49  H    0.349757
    50  H    0.213442
    51  H    0.203383
    52  H    0.184073
    53  H    0.358278
    54  H    0.353665
    55  N   -0.606542
    56  C   -0.036246
    57  C    0.630579
    58  O   -0.572120
    59  C   -0.291811
    60  C   -0.294474
    61  C   -0.166934
    62  N   -0.606187
    63  C    0.749359
    64  N   -0.746976
    65  N   -0.756470
    66  O   -0.571585
    67  H    0.488783
    68  H    0.394700
    69  H    0.186042
    70  H    0.177865
    71  H    0.175066
    72  H    0.162761
    73  H    0.176909
    74  H    0.164566
    75  H    0.186178
    76  H    0.427065
    77  H    0.379822
    78  H    0.379381
    79  H    0.360240
    80  H    0.400532
 Sum of Mulliken charges =   1.00000

 Dipole moment (field-independent basis, Debye):
    X=             -7.4994    Y=             44.0445    Z=            -44.2698  Tot=             62.8965
 Quadrupole moment (field-independent basis, Debye-Ang):
   XX=           -168.6691   YY=            261.2550   ZZ=            205.9685
   XY=            -93.6450   XZ=            101.3039   YZ=           -385.9730

 Normal termination of Gaussian 16 at Sat Jun 11 21:08:22 2022.
