 Gaussian 16, Revision C.01,
 Gaussian 16:  ES64L-G16RevC.01  3-Jul-2019

 ----------------------------------------------------------------------
 # B3LYP/6-31G* empiricaldispersion=gd3 guess=read geom=check nosymm in
 tegral(ultrafinegrid)
 ----------------------------------------------------------------------

 -----------------------------------------------------
 Candidate Structure: Conf:34 Charge calc in gas phase
 -----------------------------------------------------
 Structure from the checkpoint file:  "conf-34.chk"
 Charge =  1 Multiplicity = 1

                          Input orientation:
 ---------------------------------------------------------------------
 Center     Atomic      Atomic             Coordinates (Angstroms)
 Number     Number       Type             X           Y           Z
 ---------------------------------------------------------------------
      1          7           0      -95.406609  -12.747318    5.091360
      2          6           0      -94.084269  -13.484547    5.053092
      3          6           0      -94.026722  -14.569339    3.954612
      4          8           0      -93.147215  -14.501318    3.109055
      5          6           0      -93.798552  -14.021711    6.470732
      6          6           0      -93.782886  -12.919079    7.486176
      7          6           0      -94.693329  -12.709384    8.499478
      8          6           0      -92.824239  -11.840930    7.561945
      9          6           0      -93.212481  -11.016695    8.651110
     10          6           0      -91.674765  -11.504466    6.823634
     11          7           0      -94.357497  -11.569289    9.197191
     12          6           0      -92.494895   -9.872813    9.015994
     13          6           0      -90.959494  -10.370113    7.182438
     14          6           0      -91.367152   -9.562767    8.265902
     15          1           0      -95.378837  -12.092428    5.885245
     16          1           0      -93.334452  -12.744118    4.773025
     17          1           0      -94.542966  -14.783864    6.730380
     18          1           0      -92.829722  -14.533479    6.424522
     19          1           0      -95.540114  -13.313114    8.798588
     20          1           0      -94.815182  -11.244868   10.035495
     21          1           0      -91.338718  -12.128604    5.999444
     22          1           0      -92.802831   -9.254775    9.854520
     23          1           0      -90.066914  -10.099967    6.626392
     24          1           0      -90.783507   -8.683832    8.522471
     25          1           0      -95.605979  -12.234343    4.225404
     26          1           0      -96.243324  -13.399378    5.203604
     27          7           0      -94.922126  -15.582652    4.069690
     28          6           0      -95.052787  -16.645862    3.065140
     29          6           0      -95.464221  -16.030225    1.705068
     30          8           0      -94.778914  -16.156269    0.705795
     31          6           0      -93.805242  -17.548168    2.924295
     32          6           0      -94.199062  -18.844181    2.181740
     33          6           0      -93.187305  -17.850539    4.295642
     34          6           0      -92.999262  -19.641772    1.660403
     35          1           0      -95.731389  -15.456281    4.668463
     36          1           0      -95.875185  -17.271173    3.429222
     37          1           0      -93.079901  -17.002322    2.315302
     38          1           0      -94.800843  -19.472280    2.857175
     39          1           0      -94.837426  -18.591774    1.328575
     40          1           0      -93.922766  -18.300694    4.975849
     41          1           0      -92.356250  -18.553908    4.193525
     42          1           0      -92.792209  -16.947783    4.770318
     43          1           0      -92.405840  -19.033522    0.968413
     44          1           0      -93.331760  -20.535161    1.120875
     45          1           0      -92.339143  -19.973872    2.468947
     46          7           0      -96.614073  -15.253713    1.625247
     47          6           0      -97.834619  -15.094371    2.428501
     48          6           0      -97.645229  -14.080229    3.585705
     49          8           0      -97.382099  -14.513746    4.751516
     50          6           0      -98.516103  -16.398707    2.867430
     51          6           0      -99.852272  -16.200874    3.614460
     52          6           0     -100.871533  -15.247699    2.955890
     53          7           0     -100.603616  -13.818433    3.224358
     54          6           0     -100.816818  -13.205347    4.399076
     55          7           0     -101.829171  -13.595609    5.195157
     56          7           0     -100.016673  -12.198272    4.754840
     57          8           0      -97.773030  -12.855163    3.295617
     58          1           0      -96.676977  -14.860927    0.693562
     59          1           0      -98.506558  -14.594756    1.724019
     60          1           0      -98.673112  -17.008298    1.969483
     61          1           0      -97.857210  -16.964488    3.530367
     62          1           0      -99.652284  -15.845743    4.631506
     63          1           0     -100.331233  -17.182022    3.712094
     64          1           0     -100.887509  -15.359014    1.867874
     65          1           0     -101.883744  -15.482495    3.296106
     66          1           0      -99.869971  -13.378272    2.676215
     67          1           0     -101.937993  -13.210148    6.121488
     68          1           0     -102.600932  -14.131333    4.826179
     69          1           0      -99.066428  -12.167845    4.344777
     70          1           0     -100.263549  -11.581539    5.515136
 ---------------------------------------------------------------------

 SCF Done:  E(RB3LYP) =  -1582.23454195     A.U. after    2 cycles

 Alpha  occ. eigenvalues --  -19.23158 -19.22592 -19.20826 -19.19332 -14.54831
 Alpha  occ. eigenvalues --  -14.52474 -14.51194 -14.50661 -14.47389 -14.44858
 Alpha  occ. eigenvalues --  -14.44474 -10.47973 -10.40226 -10.38444 -10.36883
 Alpha  occ. eigenvalues --  -10.36201 -10.35942 -10.33988 -10.32028 -10.31535
 Alpha  occ. eigenvalues --  -10.30902 -10.30739 -10.30557 -10.29572 -10.28431
 Alpha  occ. eigenvalues --  -10.27423 -10.27171 -10.26999 -10.26543 -10.26155
 Alpha  occ. eigenvalues --  -10.25011 -10.23619 -10.23537 -10.22237  -1.16785
 Alpha  occ. eigenvalues --   -1.16004  -1.13150  -1.11476  -1.09769  -1.07247
 Alpha  occ. eigenvalues --   -1.06948  -1.05769  -1.04441  -1.01746  -1.00196
 Alpha  occ. eigenvalues --   -0.92567  -0.91228  -0.91074  -0.87787  -0.85798
 Alpha  occ. eigenvalues --   -0.85380  -0.82044  -0.81405  -0.80680  -0.79988
 Alpha  occ. eigenvalues --   -0.77755  -0.77167  -0.76395  -0.73476  -0.72360
 Alpha  occ. eigenvalues --   -0.70931  -0.70577  -0.69738  -0.69039  -0.68824
 Alpha  occ. eigenvalues --   -0.68509  -0.67369  -0.66239  -0.65726  -0.65393
 Alpha  occ. eigenvalues --   -0.64981  -0.63210  -0.62620  -0.61781  -0.61419
 Alpha  occ. eigenvalues --   -0.61155  -0.60363  -0.59066  -0.57723  -0.57337
 Alpha  occ. eigenvalues --   -0.56862  -0.55864  -0.55677  -0.55229  -0.54407
 Alpha  occ. eigenvalues --   -0.54123  -0.53650  -0.52744  -0.52251  -0.51785
 Alpha  occ. eigenvalues --   -0.51521  -0.51323  -0.50869  -0.50654  -0.50080
 Alpha  occ. eigenvalues --   -0.49765  -0.49363  -0.49142  -0.47922  -0.47389
 Alpha  occ. eigenvalues --   -0.46920  -0.46888  -0.46726  -0.46163  -0.45657
 Alpha  occ. eigenvalues --   -0.44978  -0.43683  -0.43530  -0.43177  -0.43063
 Alpha  occ. eigenvalues --   -0.41981  -0.41818  -0.41294  -0.40279  -0.39271
 Alpha  occ. eigenvalues --   -0.39039  -0.38801  -0.38135  -0.37950  -0.36856
 Alpha  occ. eigenvalues --   -0.36528  -0.35468  -0.34157  -0.33178  -0.31712
 Alpha  occ. eigenvalues --   -0.31011  -0.29594
 Alpha virt. eigenvalues --   -0.12824  -0.10056  -0.09975  -0.09018  -0.08220
 Alpha virt. eigenvalues --   -0.06305  -0.05933  -0.04902  -0.04602  -0.03707
 Alpha virt. eigenvalues --   -0.03333  -0.01623  -0.00802  -0.00777  -0.00160

 Mulliken charges:
               1
     1  N   -0.769727
     2  C   -0.123109
     3  C    0.618132
     4  O   -0.485202
     5  C   -0.364960
     6  C    0.009894
     7  C   -0.012976
     8  C    0.086605
     9  C    0.309716
    10  C   -0.216935
    11  N   -0.681604
    12  C   -0.158097
    13  C   -0.137029
    14  C   -0.147029
    15  H    0.386143
    16  H    0.217752
    17  H    0.169259
    18  H    0.207314
    19  H    0.162188
    20  H    0.342212
    21  H    0.143686
    22  H    0.143505
    23  H    0.148838
    24  H    0.150576
    25  H    0.410794
    26  H    0.415818
    27  N   -0.629474
    28  C   -0.063278
    29  C    0.613284
    30  O   -0.471143
    31  C   -0.068489
    32  C   -0.266495
    33  C   -0.458495
    34  C   -0.451899
    35  H    0.358833
    36  H    0.155295
    37  H    0.186665
    38  H    0.117842
    39  H    0.151214
    40  H    0.127562
    41  H    0.164287
    42  H    0.142994
    43  H    0.162412
    44  H    0.150240
    45  H    0.147427
    46  N   -0.637721
    47  C   -0.006209
    48  C    0.609907
    49  O   -0.612026
    50  C   -0.276505
    51  C   -0.286877
    52  C   -0.176479
    53  N   -0.595463
    54  C    0.791992
    55  N   -0.755570
    56  N   -0.772166
    57  O   -0.617018
    58  H    0.345439
    59  H    0.131189
    60  H    0.165409
    61  H    0.168872
    62  H    0.174226
    63  H    0.172116
    64  H    0.198017
    65  H    0.167095
    66  H    0.380910
    67  H    0.377002
    68  H    0.384407
    69  H    0.414132
    70  H    0.360776
 Sum of Mulliken charges =   1.00000

 Dipole moment (field-independent basis, Debye):
    X=           -477.3156    Y=            -62.6067    Z=             29.8972  Tot=            482.3314
 Quadrupole moment (field-independent basis, Debye-Ang):
   XX=          47275.9967   YY=            642.4748   ZZ=             -0.6569
   XY=           6246.4125   XZ=          -2930.8024   YZ=           -373.9961

 Normal termination of Gaussian 16 at Tue May 24 23:10:03 2022.
