 Gaussian 16, Revision C.01,
 Gaussian 16:  ES64L-G16RevC.01  3-Jul-2019

 ----------------------------------------------------------------------
 # B3LYP/6-31G* empiricaldispersion=gd3 guess=read geom=check nosymm in
 tegral(ultrafinegrid)
 ----------------------------------------------------------------------

 ------------------------------------------------------
 Candidate Structure: Conf:746 Charge calc in gas phase
 ------------------------------------------------------
 Structure from the checkpoint file:  "conf-746.chk"
 Charge =  1 Multiplicity = 1

                          Input orientation:
 ---------------------------------------------------------------------
 Center     Atomic      Atomic             Coordinates (Angstroms)
 Number     Number       Type             X           Y           Z
 ---------------------------------------------------------------------
      1          7           0      -97.009925  -14.482899    5.596356
      2          6           0      -96.869068  -15.369195    4.382483
      3          6           0      -95.398611  -15.534196    3.936686
      4          8           0      -94.896528  -16.646647    3.953833
      5          6           0      -97.812347  -14.840781    3.282771
      6          6           0      -99.233364  -14.785640    3.757106
      7          6           0      -99.986754  -13.656328    3.992620
      8          6           0     -100.062119  -15.916164    4.105494
      9          6           0     -101.310523  -15.396380    4.539737
     10          6           0      -99.871749  -17.310015    4.081015
     11          7           0     -101.230362  -14.017574    4.463326
     12          6           0     -102.361485  -16.222357    4.951847
     13          6           0     -100.912201  -18.133368    4.489373
     14          6           0     -102.142736  -17.594146    4.921674
     15          1           0      -98.004320  -14.430549    5.850421
     16          1           0      -97.183520  -16.364224    4.698976
     17          1           0      -97.476537  -13.850570    2.951236
     18          1           0      -97.705612  -15.511419    2.421444
     19          1           0      -99.737551  -12.616120    3.828970
     20          1           0     -101.991108  -13.380227    4.643807
     21          1           0      -98.935703  -17.738970    3.732142
     22          1           0     -103.311700  -15.809007    5.277654
     23          1           0     -100.782835  -19.211273    4.471118
     24          1           0     -102.937479  -18.265900    5.231791
     25          1           0      -96.432099  -14.801378    6.388629
     26          1           0      -96.626585  -13.504783    5.443232
     27          7           0      -94.777805  -14.415869    3.477553
     28          6           0      -93.400133  -14.411906    2.963644
     29          6           0      -92.400542  -14.774540    4.093420
     30          8           0      -91.696080  -15.767077    4.031779
     31          6           0      -93.187389  -15.303015    1.717210
     32          6           0      -91.857077  -14.910883    1.036618
     33          6           0      -94.369136  -15.184721    0.745640
     34          6           0      -91.354350  -15.949412    0.028457
     35          1           0      -95.227928  -13.517550    3.587688
     36          1           0      -93.218218  -13.375019    2.663340
     37          1           0      -93.109708  -16.335210    2.068403
     38          1           0      -91.985453  -13.937184    0.538475
     39          1           0      -91.085081  -14.777898    1.801499
     40          1           0      -94.550249  -14.139620    0.459952
     41          1           0      -94.168233  -15.747046   -0.170364
     42          1           0      -95.292556  -15.585957    1.173824
     43          1           0      -92.056790  -16.099515   -0.798564
     44          1           0      -91.199259  -16.916658    0.519680
     45          1           0      -90.398702  -15.637019   -0.406152
     46          7           0      -92.285427  -13.941423    5.193400
     47          6           0      -92.977840  -12.728392    5.634215
     48          6           0      -94.456891  -13.007811    5.999438
     49          8           0      -95.375830  -12.361333    5.390216
     50          6           0      -92.722898  -11.509735    4.724806
     51          6           0      -93.331182  -10.158114    5.161680
     52          6           0      -93.179015   -9.770572    6.640241
     53          7           0      -94.107752  -10.558792    7.475995
     54          6           0      -93.858521  -11.006105    8.709947
     55          7           0      -92.992597  -10.340284    9.495711
     56          7           0      -94.468335  -12.115636    9.145250
     57          8           0      -94.663099  -13.835735    6.928083
     58          1           0      -91.676337  -14.368644    5.879916
     59          1           0      -92.509961  -12.513965    6.601489
     60          1           0      -91.634203  -11.411892    4.639098
     61          1           0      -93.095086  -11.709716    3.716907
     62          1           0      -94.394758  -10.135644    4.905930
     63          1           0      -92.852462   -9.367067    4.573754
     64          1           0      -92.157322   -9.954896    6.993343
     65          1           0      -93.394298   -8.702895    6.765697
     66          1           0      -94.895595  -10.976821    6.985101
     67          1           0      -92.653286  -10.740865   10.358256
     68          1           0      -92.759758   -9.375674    9.307371
     69          1           0      -94.697766  -12.851820    8.456365
     70          1           0      -94.409148  -12.376826   10.119765
 ---------------------------------------------------------------------

 SCF Done:  E(RB3LYP) =  -1582.23865192     A.U. after    2 cycles

 Alpha  occ. eigenvalues --  -19.23007 -19.22193 -19.20895 -19.18946 -14.54009
 Alpha  occ. eigenvalues --  -14.52690 -14.51365 -14.50642 -14.47016 -14.45523
 Alpha  occ. eigenvalues --  -14.44160 -10.48091 -10.40193 -10.38580 -10.36630
 Alpha  occ. eigenvalues --  -10.36088 -10.35695 -10.33717 -10.31722 -10.31629
 Alpha  occ. eigenvalues --  -10.30770 -10.30455 -10.30413 -10.29413 -10.28072
 Alpha  occ. eigenvalues --  -10.27118 -10.26873 -10.26728 -10.26256 -10.25887
 Alpha  occ. eigenvalues --  -10.25132 -10.23815 -10.23677 -10.22288  -1.16788
 Alpha  occ. eigenvalues --   -1.15900  -1.13224  -1.11152  -1.09178  -1.06890
 Alpha  occ. eigenvalues --   -1.06796  -1.05819  -1.04492  -1.01953  -1.00094
 Alpha  occ. eigenvalues --   -0.92268  -0.91128  -0.90834  -0.87826  -0.85601
 Alpha  occ. eigenvalues --   -0.85259  -0.81746  -0.81227  -0.80283  -0.79728
 Alpha  occ. eigenvalues --   -0.77981  -0.77313  -0.76288  -0.73954  -0.71876
 Alpha  occ. eigenvalues --   -0.70666  -0.70615  -0.69909  -0.68848  -0.68715
 Alpha  occ. eigenvalues --   -0.68066  -0.66607  -0.66516  -0.65881  -0.65047
 Alpha  occ. eigenvalues --   -0.64859  -0.63092  -0.62494  -0.61763  -0.61694
 Alpha  occ. eigenvalues --   -0.60658  -0.60293  -0.58958  -0.58231  -0.57055
 Alpha  occ. eigenvalues --   -0.56714  -0.55957  -0.55431  -0.54761  -0.54369
 Alpha  occ. eigenvalues --   -0.54014  -0.53503  -0.52727  -0.52089  -0.51910
 Alpha  occ. eigenvalues --   -0.51469  -0.51037  -0.50650  -0.50401  -0.49790
 Alpha  occ. eigenvalues --   -0.49456  -0.48981  -0.48849  -0.47888  -0.47486
 Alpha  occ. eigenvalues --   -0.46997  -0.46674  -0.46429  -0.45878  -0.45600
 Alpha  occ. eigenvalues --   -0.44683  -0.43686  -0.43421  -0.43375  -0.43211
 Alpha  occ. eigenvalues --   -0.41702  -0.41510  -0.41400  -0.40633  -0.39585
 Alpha  occ. eigenvalues --   -0.38966  -0.38545  -0.38119  -0.37891  -0.36298
 Alpha  occ. eigenvalues --   -0.36225  -0.35484  -0.34219  -0.32685  -0.31858
 Alpha  occ. eigenvalues --   -0.30691  -0.29251
 Alpha virt. eigenvalues --   -0.13034  -0.09966  -0.09661  -0.08594  -0.07817
 Alpha virt. eigenvalues --   -0.06215  -0.05637  -0.04306  -0.03476  -0.03012
 Alpha virt. eigenvalues --   -0.02501  -0.01889  -0.01060  -0.00395  -0.00141

 Mulliken charges:
               1
     1  N   -0.764051
     2  C   -0.122012
     3  C    0.624147
     4  O   -0.481863
     5  C   -0.365663
     6  C    0.012820
     7  C   -0.010722
     8  C    0.084980
     9  C    0.310176
    10  C   -0.216902
    11  N   -0.681485
    12  C   -0.157828
    13  C   -0.137268
    14  C   -0.147523
    15  H    0.388586
    16  H    0.218781
    17  H    0.161616
    18  H    0.205374
    19  H    0.163395
    20  H    0.343143
    21  H    0.141247
    22  H    0.143594
    23  H    0.147260
    24  H    0.149418
    25  H    0.414044
    26  H    0.409489
    27  N   -0.633430
    28  C   -0.058751
    29  C    0.623436
    30  O   -0.476359
    31  C   -0.070154
    32  C   -0.267044
    33  C   -0.463580
    34  C   -0.452185
    35  H    0.345694
    36  H    0.156124
    37  H    0.188641
    38  H    0.118510
    39  H    0.153820
    40  H    0.127318
    41  H    0.166787
    42  H    0.141463
    43  H    0.146987
    44  H    0.162785
    45  H    0.150928
    46  N   -0.614840
    47  C   -0.013064
    48  C    0.591729
    49  O   -0.626389
    50  C   -0.268761
    51  C   -0.310287
    52  C   -0.158237
    53  N   -0.603549
    54  C    0.773678
    55  N   -0.749915
    56  N   -0.777035
    57  O   -0.598383
    58  H    0.341489
    59  H    0.138997
    60  H    0.162840
    61  H    0.161500
    62  H    0.183134
    63  H    0.175314
    64  H    0.177593
    65  H    0.183967
    66  H    0.383812
    67  H    0.380421
    68  H    0.386329
    69  H    0.421156
    70  H    0.364762
 Sum of Mulliken charges =   1.00000

 Dipole moment (field-independent basis, Debye):
    X=           -460.8917    Y=            -53.5477    Z=             35.7197  Tot=            465.3648
 Quadrupole moment (field-independent basis, Debye-Ang):
   XX=          44086.4210   YY=            401.1017   ZZ=            104.1445
   XY=           5185.7656   XZ=          -3396.4798   YZ=           -396.3687

 Normal termination of Gaussian 16 at Tue May 24 23:10:02 2022.
