 Gaussian 16, Revision C.01,
 Gaussian 16:  ES64L-G16RevC.01  3-Jul-2019

 ----------------------------------------------------------------------
 # B3LYP/6-31G* empiricaldispersion=gd3 guess=read geom=check nosymm in
 tegral(ultrafinegrid)
 ----------------------------------------------------------------------

 ------------------------------------------------------
 Candidate Structure: Conf:472 Charge calc in gas phase
 ------------------------------------------------------
 Structure from the checkpoint file:  "conf-472.chk"
 Charge =  1 Multiplicity = 1

                          Input orientation:
 ---------------------------------------------------------------------
 Center     Atomic      Atomic             Coordinates (Angstroms)
 Number     Number       Type             X           Y           Z
 ---------------------------------------------------------------------
      1          7           0      -94.164954  -13.688268    5.249978
      2          6           0      -94.632236  -15.006764    5.817429
      3          6           0      -95.580431  -15.760428    4.857403
      4          8           0      -95.236999  -16.846098    4.417743
      5          6           0      -95.216081  -14.751647    7.221798
      6          6           0      -94.214646  -14.093110    8.122289
      7          6           0      -94.260868  -12.807366    8.615343
      8          6           0      -92.982076  -14.675421    8.599729
      9          6           0      -92.332548  -13.685175    9.383812
     10          6           0      -92.375497  -15.935896    8.448439
     11          7           0      -93.134796  -12.558418    9.369415
     12          6           0      -91.103092  -13.915320   10.009970
     13          6           0      -91.155167  -16.168411    9.068055
     14          6           0      -90.525833  -15.167537    9.838817
     15          1           0      -94.964953  -13.024991    5.030092
     16          1           0      -93.743554  -15.634563    5.890013
     17          1           0      -96.123350  -14.140524    7.140673
     18          1           0      -95.529506  -15.724864    7.618850
     19          1           0      -95.033158  -12.056870    8.509327
     20          1           0      -92.963170  -11.715931    9.896935
     21          1           0      -92.858637  -16.721781    7.873231
     22          1           0      -90.621156  -13.148445   10.609601
     23          1           0      -90.676854  -17.137749    8.965373
     24          1           0      -89.572937  -15.382641   10.312906
     25          1           0      -93.525044  -13.249648    5.923939
     26          1           0      -93.726850  -13.789469    4.322569
     27          7           0      -96.786988  -15.180807    4.622692
     28          6           0      -97.825701  -15.792894    3.780910
     29          6           0      -97.339952  -15.895392    2.311008
     30          8           0      -97.212615  -16.970580    1.751609
     31          6           0      -98.338004  -17.157141    4.299822
     32          6           0      -99.671719  -17.496321    3.597708
     33          6           0      -98.496821  -17.143478    5.825957
     34          6           0     -100.083093  -18.965446    3.739351
     35          1           0      -96.954624  -14.237138    4.943741
     36          1           0      -98.663918  -15.089746    3.817727
     37          1           0      -97.594692  -17.908172    4.020179
     38          1           0     -100.462599  -16.845435    4.002133
     39          1           0      -99.586705  -17.268351    2.530218
     40          1           0      -97.534861  -17.038154    6.336416
     41          1           0      -99.149870  -16.323322    6.153853
     42          1           0      -98.943846  -18.079544    6.171786
     43          1           0     -101.019411  -19.159232    3.205040
     44          1           0     -100.236507  -19.254948    4.784612
     45          1           0      -99.313677  -19.621364    3.316645
     46          7           0      -97.064011  -14.737698    1.603063
     47          6           0      -97.040877  -13.313163    1.942801
     48          6           0      -95.907984  -12.976315    2.943774
     49          8           0      -96.211579  -12.425569    4.056869
     50          6           0      -98.432131  -12.737254    2.274355
     51          6           0      -98.525563  -11.219565    2.549449
     52          6           0      -97.768603  -10.288909    1.590053
     53          7           0      -96.317968  -10.338512    1.864613
     54          6           0      -95.347630  -10.253940    0.950333
     55          7           0      -95.571679   -9.586804   -0.196547
     56          7           0      -94.167348  -10.841095    1.184509
     57          8           0      -94.730015  -13.224967    2.569554
     58          1           0      -96.661258  -14.977320    0.705723
     59          1           0      -96.709359  -12.841713    1.010894
     60          1           0      -99.082238  -12.998361    1.430949
     61          1           0      -98.847080  -13.240673    3.151147
     62          1           0      -98.189860  -11.011209    3.569749
     63          1           0      -99.582196  -10.933090    2.504329
     64          1           0      -97.931615  -10.581135    0.545737
     65          1           0      -98.127067   -9.260318    1.714721
     66          1           0      -96.055403  -10.688841    2.783842
     67          1           0      -94.928452   -9.648247   -0.972466
     68          1           0      -96.317709   -8.909207   -0.263272
     69          1           0      -94.153416  -11.705990    1.750880
     70          1           0      -93.381052  -10.657277    0.576769
 ---------------------------------------------------------------------

 SCF Done:  E(RB3LYP) =  -1582.23864728     A.U. after    3 cycles

 Alpha  occ. eigenvalues --  -19.23015 -19.22185 -19.20902 -19.18951 -14.54011
 Alpha  occ. eigenvalues --  -14.52687 -14.51355 -14.50641 -14.47021 -14.45530
 Alpha  occ. eigenvalues --  -14.44160 -10.48087 -10.40191 -10.38585 -10.36632
 Alpha  occ. eigenvalues --  -10.36087 -10.35699 -10.33717 -10.31726 -10.31633
 Alpha  occ. eigenvalues --  -10.30776 -10.30458 -10.30417 -10.29417 -10.28076
 Alpha  occ. eigenvalues --  -10.27122 -10.26877 -10.26732 -10.26260 -10.25890
 Alpha  occ. eigenvalues --  -10.25134 -10.23817 -10.23680 -10.22289  -1.16787
 Alpha  occ. eigenvalues --   -1.15901  -1.13230  -1.11156  -1.09180  -1.06894
 Alpha  occ. eigenvalues --   -1.06796  -1.05813  -1.04490  -1.01959  -1.00095
 Alpha  occ. eigenvalues --   -0.92271  -0.91129  -0.90838  -0.87829  -0.85602
 Alpha  occ. eigenvalues --   -0.85260  -0.81750  -0.81230  -0.80285  -0.79727
 Alpha  occ. eigenvalues --   -0.77979  -0.77315  -0.76293  -0.73952  -0.71872
 Alpha  occ. eigenvalues --   -0.70664  -0.70619  -0.69906  -0.68845  -0.68708
 Alpha  occ. eigenvalues --   -0.68071  -0.66608  -0.66533  -0.65877  -0.65054
 Alpha  occ. eigenvalues --   -0.64858  -0.63093  -0.62494  -0.61767  -0.61693
 Alpha  occ. eigenvalues --   -0.60659  -0.60288  -0.58963  -0.58228  -0.57059
 Alpha  occ. eigenvalues --   -0.56715  -0.55963  -0.55435  -0.54761  -0.54370
 Alpha  occ. eigenvalues --   -0.54014  -0.53510  -0.52726  -0.52094  -0.51912
 Alpha  occ. eigenvalues --   -0.51475  -0.51041  -0.50654  -0.50405  -0.49793
 Alpha  occ. eigenvalues --   -0.49451  -0.48978  -0.48848  -0.47890  -0.47494
 Alpha  occ. eigenvalues --   -0.47004  -0.46677  -0.46434  -0.45880  -0.45598
 Alpha  occ. eigenvalues --   -0.44685  -0.43687  -0.43424  -0.43375  -0.43212
 Alpha  occ. eigenvalues --   -0.41706  -0.41514  -0.41403  -0.40631  -0.39586
 Alpha  occ. eigenvalues --   -0.38964  -0.38549  -0.38122  -0.37900  -0.36299
 Alpha  occ. eigenvalues --   -0.36226  -0.35490  -0.34223  -0.32688  -0.31861
 Alpha  occ. eigenvalues --   -0.30695  -0.29255
 Alpha virt. eigenvalues --   -0.13027  -0.09965  -0.09664  -0.08610  -0.07816
 Alpha virt. eigenvalues --   -0.06224  -0.05642  -0.04308  -0.03480  -0.03016
 Alpha virt. eigenvalues --   -0.02500  -0.01890  -0.01064  -0.00400  -0.00139

 Mulliken charges:
               1
     1  N   -0.763865
     2  C   -0.121972
     3  C    0.623791
     4  O   -0.481817
     5  C   -0.365683
     6  C    0.012695
     7  C   -0.010672
     8  C    0.085003
     9  C    0.310164
    10  C   -0.216815
    11  N   -0.681490
    12  C   -0.157819
    13  C   -0.137264
    14  C   -0.147518
    15  H    0.409946
    16  H    0.218788
    17  H    0.161573
    18  H    0.205271
    19  H    0.163344
    20  H    0.343127
    21  H    0.141102
    22  H    0.143600
    23  H    0.147278
    24  H    0.149442
    25  H    0.388589
    26  H    0.413854
    27  N   -0.633286
    28  C   -0.058664
    29  C    0.623243
    30  O   -0.476269
    31  C   -0.070223
    32  C   -0.267061
    33  C   -0.463601
    34  C   -0.452181
    35  H    0.345834
    36  H    0.156208
    37  H    0.188700
    38  H    0.118569
    39  H    0.153772
    40  H    0.141455
    41  H    0.127341
    42  H    0.166802
    43  H    0.150937
    44  H    0.146994
    45  H    0.162812
    46  N   -0.614589
    47  C   -0.013373
    48  C    0.591583
    49  O   -0.626981
    50  C   -0.268688
    51  C   -0.310256
    52  C   -0.158236
    53  N   -0.603771
    54  C    0.773740
    55  N   -0.749936
    56  N   -0.777009
    57  O   -0.597771
    58  H    0.341544
    59  H    0.139220
    60  H    0.162958
    61  H    0.161279
    62  H    0.183009
    63  H    0.175301
    64  H    0.177622
    65  H    0.183910
    66  H    0.384005
    67  H    0.380392
    68  H    0.386296
    69  H    0.420967
    70  H    0.364747
 Sum of Mulliken charges =   1.00000

 Dipole moment (field-independent basis, Debye):
    X=           -456.9452    Y=            -49.6219    Z=             16.3068  Tot=            459.9208
 Quadrupole moment (field-independent basis, Debye-Ang):
   XX=          43307.1773   YY=            298.6330   ZZ=            -63.0762
   XY=           4714.1187   XZ=          -1530.4052   YZ=           -204.1697

 Normal termination of Gaussian 16 at Tue May 24 23:10:21 2022.
