 Gaussian 16, Revision C.01,
 Gaussian 16:  ES64L-G16RevC.01  3-Jul-2019

 ----------------------------------------------------------------------
 # B3LYP/6-31G* empiricaldispersion=gd3 guess=read geom=check nosymm in
 tegral(ultrafinegrid)
 ----------------------------------------------------------------------

 ------------------------------------------------------
 Candidate Structure: Conf:879 Charge calc in gas phase
 ------------------------------------------------------
 Structure from the checkpoint file:  "conf-879.chk"
 Charge =  1 Multiplicity = 1

                          Input orientation:
 ---------------------------------------------------------------------
 Center     Atomic      Atomic             Coordinates (Angstroms)
 Number     Number       Type             X           Y           Z
 ---------------------------------------------------------------------
      1          7           0      -93.933434  -14.515808    2.966254
      2          6           0      -93.510413  -13.077494    3.150770
      3          6           0      -93.624740  -12.645318    4.634334
      4          8           0      -92.629218  -12.226828    5.202538
      5          6           0      -94.271593  -12.167690    2.150403
      6          6           0      -95.750165  -12.414704    2.067633
      7          6           0      -96.754059  -11.750778    2.737682
      8          6           0      -96.394643  -13.435949    1.274207
      9          6           0      -97.789842  -13.346364    1.530629
     10          6           0      -95.934917  -14.403638    0.360939
     11          7           0      -97.972723  -12.311339    2.425634
     12          6           0      -98.718358  -14.199218    0.925785
     13          6           0      -96.852556  -15.252479   -0.243678
     14          6           0      -98.230859  -15.154295    0.041883
     15          1           0      -93.612681  -15.153909    3.746723
     16          1           0      -92.439203  -13.040853    2.947369
     17          1           0      -94.056090  -11.132508    2.435323
     18          1           0      -93.823307  -12.310042    1.158292
     19          1           0      -96.687107  -10.907058    3.409449
     20          1           0      -98.866498  -11.964193    2.739352
     21          1           0      -94.880831  -14.461757    0.093849
     22          1           0      -99.781520  -14.112103    1.131129
     23          1           0      -96.510077  -15.993371   -0.960050
     24          1           0      -98.925494  -15.827711   -0.451079
     25          1           0      -94.964136  -14.637434    3.044430
     26          1           0      -93.641402  -14.878664    2.056120
     27          7           0      -94.856003  -12.736261    5.199953
     28          6           0      -95.145825  -12.347060    6.588078
     29          6           0      -94.385507  -13.272408    7.576321
     30          8           0      -93.504919  -12.844314    8.302385
     31          6           0      -94.873908  -10.858007    6.909703
     32          6           0      -95.553763  -10.493336    8.247768
     33          6           0      -95.354020   -9.945307    5.774829
     34          6           0      -95.084126   -9.157888    8.834662
     35          1           0      -95.635217  -13.038253    4.630687
     36          1           0      -96.219510  -12.526431    6.705328
     37          1           0      -93.792341  -10.748798    7.024358
     38          1           0      -96.645113  -10.473074    8.099793
     39          1           0      -95.347171  -11.278697    8.981671
     40          1           0      -94.816397  -10.137773    4.841156
     41          1           0      -96.430618  -10.072970    5.591466
     42          1           0      -95.188783   -8.895018    6.029209
     43          1           0      -94.000393   -9.169768    8.996716
     44          1           0      -95.564911   -8.969428    9.800539
     45          1           0      -95.318813   -8.310189    8.181758
     46          7           0      -94.734844  -14.607309    7.660970
     47          6           0      -95.641070  -15.463342    6.893729
     48          6           0      -95.231592  -15.558688    5.405082
     49          8           0      -96.075537  -15.283982    4.506304
     50          6           0      -97.131390  -15.172714    7.166099
     51          6           0      -98.175154  -16.081433    6.477461
     52          6           0      -97.907810  -17.594626    6.500518
     53          7           0      -96.836019  -17.941594    5.545186
     54          6           0      -95.906153  -18.881915    5.727055
     55          7           0      -96.181101  -19.949350    6.499676
     56          7           0      -94.706653  -18.748183    5.145664
     57          8           0      -94.050849  -15.988840    5.187077
     58          1           0      -94.087407  -15.090016    8.271495
     59          1           0      -95.429135  -16.465234    7.284514
     60          1           0      -97.260621  -15.225279    8.253664
     61          1           0      -97.367372  -14.145002    6.877083
     62          1           0      -98.300895  -15.769182    5.436750
     63          1           0      -99.139714  -15.922314    6.972843
     64          1           0      -97.600781  -17.926737    7.499623
     65          1           0      -98.823650  -18.133687    6.230934
     66          1           0      -96.652933  -17.245409    4.822530
     67          1           0      -95.453780  -20.585075    6.793473
     68          1           0      -97.136496  -20.213902    6.692837
     69          1           0      -94.329339  -17.796736    5.001176
     70          1           0      -94.056592  -19.521942    5.142996
 ---------------------------------------------------------------------

 SCF Done:  E(RB3LYP) =  -1582.24110868     A.U. after    1 cycles

 Alpha  occ. eigenvalues --  -19.22287 -19.22255 -19.20865 -19.18999 -14.53864
 Alpha  occ. eigenvalues --  -14.52481 -14.50947 -14.50486 -14.47796 -14.45488
 Alpha  occ. eigenvalues --  -14.44161 -10.47849 -10.39930 -10.38579 -10.36700
 Alpha  occ. eigenvalues --  -10.35984 -10.35864 -10.33560 -10.31972 -10.31917
 Alpha  occ. eigenvalues --  -10.31441 -10.31024 -10.30261 -10.29284 -10.28578
 Alpha  occ. eigenvalues --  -10.28381 -10.28265 -10.28141 -10.27542 -10.27427
 Alpha  occ. eigenvalues --  -10.25627 -10.24818 -10.24166 -10.22747  -1.16546
 Alpha  occ. eigenvalues --   -1.15629  -1.13224  -1.11214  -1.09082  -1.07695
 Alpha  occ. eigenvalues --   -1.06571  -1.05511  -1.04277  -1.01957  -1.00140
 Alpha  occ. eigenvalues --   -0.93353  -0.91214  -0.90890  -0.88221  -0.86308
 Alpha  occ. eigenvalues --   -0.85158  -0.82979  -0.81698  -0.80903  -0.79682
 Alpha  occ. eigenvalues --   -0.78185  -0.77650  -0.76801  -0.73711  -0.71737
 Alpha  occ. eigenvalues --   -0.71717  -0.71002  -0.69780  -0.69124  -0.68800
 Alpha  occ. eigenvalues --   -0.68639  -0.66844  -0.65967  -0.65851  -0.65603
 Alpha  occ. eigenvalues --   -0.64691  -0.63523  -0.62978  -0.62587  -0.61813
 Alpha  occ. eigenvalues --   -0.60525  -0.60039  -0.58499  -0.58042  -0.57808
 Alpha  occ. eigenvalues --   -0.56785  -0.56604  -0.55616  -0.54755  -0.54504
 Alpha  occ. eigenvalues --   -0.53848  -0.53587  -0.53215  -0.52664  -0.52562
 Alpha  occ. eigenvalues --   -0.52219  -0.51764  -0.51403  -0.50965  -0.50555
 Alpha  occ. eigenvalues --   -0.49870  -0.49059  -0.48216  -0.48167  -0.47857
 Alpha  occ. eigenvalues --   -0.47342  -0.46837  -0.46555  -0.45782  -0.45571
 Alpha  occ. eigenvalues --   -0.44769  -0.44703  -0.44289  -0.43832  -0.43152
 Alpha  occ. eigenvalues --   -0.43021  -0.42746  -0.41896  -0.40482  -0.40160
 Alpha  occ. eigenvalues --   -0.39018  -0.38636  -0.38588  -0.37527  -0.37185
 Alpha  occ. eigenvalues --   -0.36134  -0.35456  -0.34266  -0.32681  -0.32102
 Alpha  occ. eigenvalues --   -0.31704  -0.30105
 Alpha virt. eigenvalues --   -0.12837  -0.10870  -0.09810  -0.08350  -0.07639
 Alpha virt. eigenvalues --   -0.06917  -0.06540  -0.05630  -0.04137  -0.03257
 Alpha virt. eigenvalues --   -0.02406  -0.01627  -0.01198  -0.00679   0.00092

 Mulliken charges:
               1
     1  N   -0.784540
     2  C   -0.105595
     3  C    0.611089
     4  O   -0.479621
     5  C   -0.376662
     6  C    0.012194
     7  C    0.003271
     8  C    0.078974
     9  C    0.326056
    10  C   -0.239894
    11  N   -0.687045
    12  C   -0.155723
    13  C   -0.132823
    14  C   -0.152117
    15  H    0.429487
    16  H    0.212382
    17  H    0.203192
    18  H    0.178818
    19  H    0.184713
    20  H    0.343792
    21  H    0.114930
    22  H    0.144444
    23  H    0.142248
    24  H    0.147660
    25  H    0.425574
    26  H    0.385164
    27  N   -0.641948
    28  C   -0.051744
    29  C    0.620757
    30  O   -0.477424
    31  C   -0.070471
    32  C   -0.267260
    33  C   -0.471307
    34  C   -0.452616
    35  H    0.358128
    36  H    0.149404
    37  H    0.192796
    38  H    0.115177
    39  H    0.157994
    40  H    0.142530
    41  H    0.123043
    42  H    0.172150
    43  H    0.164188
    44  H    0.152444
    45  H    0.145624
    46  N   -0.610755
    47  C   -0.016979
    48  C    0.595184
    49  O   -0.603252
    50  C   -0.263940
    51  C   -0.309970
    52  C   -0.158105
    53  N   -0.604368
    54  C    0.771246
    55  N   -0.750059
    56  N   -0.777807
    57  O   -0.615148
    58  H    0.341051
    59  H    0.139314
    60  H    0.160418
    61  H    0.160019
    62  H    0.186290
    63  H    0.170761
    64  H    0.175752
    65  H    0.182487
    66  H    0.389118
    67  H    0.379450
    68  H    0.385605
    69  H    0.418192
    70  H    0.364064
 Sum of Mulliken charges =   1.00000

 Dipole moment (field-independent basis, Debye):
    X=           -464.7210    Y=            -82.7441    Z=             20.9856  Tot=            472.4961
 Quadrupole moment (field-independent basis, Debye-Ang):
   XX=          44776.0628   YY=           1283.7908   ZZ=            -85.9055
   XY=           7981.4791   XZ=          -2053.3008   YZ=           -396.3120

 Normal termination of Gaussian 16 at Tue May 24 23:09:40 2022.
