 Gaussian 16, Revision C.01,
 Gaussian 16:  ES64L-G16RevC.01  3-Jul-2019

 ----------------------------------------------------------------------
 # B3LYP/6-31G* empiricaldispersion=gd3 guess=read geom=check nosymm in
 tegral(ultrafinegrid)
 ----------------------------------------------------------------------

 ------------------------------------------------------
 Candidate Structure: Conf:222 Charge calc in gas phase
 ------------------------------------------------------
 Structure from the checkpoint file:  "conf-222.chk"
 Charge =  1 Multiplicity = 1

                          Input orientation:
 ---------------------------------------------------------------------
 Center     Atomic      Atomic             Coordinates (Angstroms)
 Number     Number       Type             X           Y           Z
 ---------------------------------------------------------------------
      1          7           0      -95.647777  -12.831875    3.028016
      2          6           0      -96.890985  -12.020835    3.375248
      3          6           0      -96.607456  -11.403576    4.763869
      4          8           0      -96.399725  -10.208276    4.861790
      5          6           0      -98.129365  -12.931880    3.235712
      6          6           0      -98.077329  -13.749042    1.980148
      7          6           0      -97.773527  -15.089663    1.903740
      8          6           0      -98.212566  -13.271065    0.625820
      9          6           0      -97.996394  -14.386469   -0.228938
     10          6           0      -98.495277  -12.016166    0.056042
     11          7           0      -97.724664  -15.474991    0.580318
     12          6           0      -98.062489  -14.281996   -1.622111
     13          6           0      -98.555745  -11.907549   -1.326851
     14          6           0      -98.342364  -13.029540   -2.155941
     15          1           0      -94.787452  -12.348215    3.334172
     16          1           0      -96.926537  -11.197504    2.660925
     17          1           0      -98.200996  -13.602343    4.096818
     18          1           0      -99.010315  -12.280110    3.261753
     19          1           0      -97.555577  -15.784537    2.704257
     20          1           0      -97.597552  -16.421520    0.256305
     21          1           0      -98.677114  -11.149078    0.686531
     22          1           0      -97.902211  -15.144872   -2.262427
     23          1           0      -98.776544  -10.946535   -1.781667
     24          1           0      -98.401150  -12.912391   -3.233902
     25          1           0      -95.667816  -13.745504    3.543943
     26          1           0      -95.633280  -13.030228    2.023352
     27          7           0      -96.544988  -12.325488    5.784094
     28          6           0      -95.424618  -12.371936    6.744578
     29          6           0      -94.232110  -12.947404    5.955053
     30          8           0      -93.728568  -12.270098    5.053158
     31          6           0      -95.051142  -11.029667    7.409951
     32          6           0      -93.896059  -11.266535    8.406721
     33          6           0      -96.286181  -10.414351    8.078583
     34          6           0      -93.343674   -9.979940    9.029855
     35          1           0      -96.750333  -13.277465    5.490783
     36          1           0      -95.733975  -13.052831    7.536426
     37          1           0      -94.699262  -10.357311    6.622277
     38          1           0      -94.239952  -11.945115    9.202767
     39          1           0      -93.072777  -11.783750    7.896358
     40          1           0      -96.039837   -9.448670    8.528293
     41          1           0      -97.079993  -10.244558    7.348478
     42          1           0      -96.671916  -11.066864    8.873268
     43          1           0      -94.084261   -9.478405    9.660447
     44          1           0      -93.030789   -9.273447    8.252137
     45          1           0      -92.471388  -10.196689    9.655744
     46          7           0      -93.686679  -14.174982    6.262747
     47          6           0      -94.378631  -15.450599    6.533038
     48          6           0      -95.321166  -15.853290    5.345799
     49          8           0      -95.941463  -14.926597    4.757645
     50          6           0      -95.074112  -15.512179    7.913717
     51          6           0      -95.590749  -16.887272    8.386129
     52          6           0      -94.573989  -18.039295    8.417343
     53          7           0      -94.360980  -18.515771    7.046831
     54          6           0      -93.297752  -19.146997    6.579794
     55          7           0      -92.444027  -19.798857    7.389563
     56          7           0      -93.049192  -19.084444    5.252873
     57          8           0      -95.405387  -17.079986    5.063838
     58          1           0      -92.889185  -14.316733    5.647453
     59          1           0      -93.564914  -16.180439    6.551056
     60          1           0      -94.360753  -15.115044    8.646112
     61          1           0      -95.939587  -14.845312    7.921260
     62          1           0      -96.447684  -17.200851    7.776957
     63          1           0      -95.975380  -16.756439    9.403125
     64          1           0      -93.619123  -17.711007    8.850532
     65          1           0      -94.964735  -18.855447    9.037396
     66          1           0      -94.930224  -18.043237    6.304016
     67          1           0      -91.571703  -20.170539    7.043732
     68          1           0      -92.696268  -20.006299    8.344321
     69          1           0      -93.692687  -18.529695    4.692822
     70          1           0      -92.548585  -19.829443    4.789013
 ---------------------------------------------------------------------

 SCF Done:  E(RB3LYP) =  -1582.24422063     A.U. after    1 cycles

 Alpha  occ. eigenvalues --  -19.22138 -19.22051 -19.22043 -19.21289 -14.53848
 Alpha  occ. eigenvalues --  -14.51921 -14.50602 -14.49253 -14.46152 -14.46074
 Alpha  occ. eigenvalues --  -14.44178 -10.47129 -10.39890 -10.39040 -10.38416
 Alpha  occ. eigenvalues --  -10.35617 -10.35190 -10.34353 -10.32141 -10.30984
 Alpha  occ. eigenvalues --  -10.30464 -10.30188 -10.29712 -10.29675 -10.26869
 Alpha  occ. eigenvalues --  -10.26392 -10.26302 -10.26194 -10.26147 -10.25674
 Alpha  occ. eigenvalues --  -10.25319 -10.25172 -10.23481 -10.23313  -1.15958
 Alpha  occ. eigenvalues --   -1.15184  -1.14042  -1.12928  -1.08933  -1.06583
 Alpha  occ. eigenvalues --   -1.05959  -1.04802  -1.04082  -1.02030  -1.01463
 Alpha  occ. eigenvalues --   -0.91534  -0.91517  -0.90061  -0.88431  -0.85672
 Alpha  occ. eigenvalues --   -0.84972  -0.81471  -0.81006  -0.79888  -0.79605
 Alpha  occ. eigenvalues --   -0.77837  -0.77102  -0.75835  -0.73281  -0.71671
 Alpha  occ. eigenvalues --   -0.70725  -0.69792  -0.69534  -0.68994  -0.68339
 Alpha  occ. eigenvalues --   -0.67601  -0.66690  -0.66247  -0.64699  -0.64373
 Alpha  occ. eigenvalues --   -0.64145  -0.63346  -0.61764  -0.61736  -0.61631
 Alpha  occ. eigenvalues --   -0.60754  -0.59719  -0.58667  -0.58502  -0.57827
 Alpha  occ. eigenvalues --   -0.56856  -0.56145  -0.54880  -0.54645  -0.54401
 Alpha  occ. eigenvalues --   -0.53865  -0.53012  -0.52770  -0.52060  -0.51761
 Alpha  occ. eigenvalues --   -0.51128  -0.51018  -0.50498  -0.50410  -0.50356
 Alpha  occ. eigenvalues --   -0.49550  -0.49184  -0.48668  -0.48041  -0.47859
 Alpha  occ. eigenvalues --   -0.47410  -0.46878  -0.46497  -0.45629  -0.45399
 Alpha  occ. eigenvalues --   -0.44944  -0.44174  -0.43935  -0.42734  -0.42666
 Alpha  occ. eigenvalues --   -0.42287  -0.41046  -0.40861  -0.40009  -0.39932
 Alpha  occ. eigenvalues --   -0.39466  -0.39040  -0.38641  -0.38131  -0.37421
 Alpha  occ. eigenvalues --   -0.35908  -0.35583  -0.34372  -0.34019  -0.33121
 Alpha  occ. eigenvalues --   -0.29974  -0.28380
 Alpha virt. eigenvalues --   -0.11723  -0.11299  -0.08856  -0.08806  -0.07347
 Alpha virt. eigenvalues --   -0.06739  -0.05055  -0.03853  -0.03045  -0.02570
 Alpha virt. eigenvalues --   -0.02187  -0.01790  -0.01192   0.00109   0.00324

 Mulliken charges:
               1
     1  N   -0.791342
     2  C   -0.103924
     3  C    0.593691
     4  O   -0.466947
     5  C   -0.370028
     6  C   -0.002949
     7  C   -0.007399
     8  C    0.075916
     9  C    0.308824
    10  C   -0.216878
    11  N   -0.684401
    12  C   -0.159338
    13  C   -0.137270
    14  C   -0.148598
    15  H    0.431708
    16  H    0.211997
    17  H    0.181667
    18  H    0.195097
    19  H    0.187994
    20  H    0.338540
    21  H    0.132863
    22  H    0.139368
    23  H    0.143978
    24  H    0.146289
    25  H    0.443707
    26  H    0.402691
    27  N   -0.614637
    28  C   -0.034978
    29  C    0.577051
    30  O   -0.541915
    31  C   -0.081882
    32  C   -0.269333
    33  C   -0.458335
    34  C   -0.450816
    35  H    0.362843
    36  H    0.143362
    37  H    0.179468
    38  H    0.121707
    39  H    0.142577
    40  H    0.163561
    41  H    0.176313
    42  H    0.129705
    43  H    0.157977
    44  H    0.157409
    45  H    0.150346
    46  N   -0.582230
    47  C   -0.075689
    48  C    0.614096
    49  O   -0.591904
    50  C   -0.281151
    51  C   -0.323167
    52  C   -0.150870
    53  N   -0.619166
    54  C    0.781511
    55  N   -0.756908
    56  N   -0.773692
    57  O   -0.588579
    58  H    0.330600
    59  H    0.143304
    60  H    0.171715
    61  H    0.176001
    62  H    0.182786
    63  H    0.181740
    64  H    0.172509
    65  H    0.182872
    66  H    0.422817
    67  H    0.379247
    68  H    0.385343
    69  H    0.395986
    70  H    0.367148
 Sum of Mulliken charges =   1.00000

 Dipole moment (field-independent basis, Debye):
    X=           -451.7522    Y=            -84.5712    Z=             25.9461  Tot=            460.3319
 Quadrupole moment (field-independent basis, Debye-Ang):
   XX=          42305.9844   YY=           1319.7807   ZZ=              7.3431
   XY=           7929.1996   XZ=          -2420.8933   YZ=           -480.4943

 Normal termination of Gaussian 16 at Tue May 24 23:09:33 2022.
