 Gaussian 16, Revision C.01,
 Gaussian 16:  ES64L-G16RevC.01  3-Jul-2019

 ----------------------------------------------------------------------
 # B3LYP/6-31G* empiricaldispersion=gd3 guess=read geom=check nosymm in
 tegral(ultrafinegrid)
 ----------------------------------------------------------------------

 ------------------------------------------------------
 Candidate Structure: Conf:876 Charge calc in gas phase
 ------------------------------------------------------
 Structure from the checkpoint file:  "conf-876.chk"
 Charge =  1 Multiplicity = 1

                          Input orientation:
 ---------------------------------------------------------------------
 Center     Atomic      Atomic             Coordinates (Angstroms)
 Number     Number       Type             X           Y           Z
 ---------------------------------------------------------------------
      1          7           0        8.895751   29.026823   12.465687
      2          6           0       10.102094   28.367536   13.104314
      3          6           0       10.257550   28.670526   14.611731
      4          8           0       10.170769   27.730186   15.391433
      5          6           0       11.406401   28.636771   12.342967
      6          6           0       11.476475   28.100299   10.897333
      7          6           0       10.778885   28.991011    9.870639
      8          8           0       11.476707   29.622125    9.045043
      9          8           0        9.491936   29.068872    9.922084
     10          1           0        8.978064   28.929539   11.386490
     11          1           0        9.879035   27.299491   13.069028
     12          1           0       11.685916   29.692224   12.366573
     13          1           0       12.180192   28.128348   12.929131
     14          1           0       11.036405   27.095937   10.845092
     15          1           0       12.526469   28.025368   10.608376
     16          1           0        8.024763   28.620230   12.822052
     17          1           0        8.828792   30.024703   12.687265
     18          7           0       10.634240   29.913811   15.027688
     19          6           0       10.449654   31.242657   14.468238
     20          6           0       11.624538   32.101269   14.976831
     21          8           0       12.096572   31.850418   16.077466
     22          6           0        9.141563   31.903341   15.015147
     23          6           0        7.891631   31.150582   14.671418
     24          6           0        7.507987   29.914981   15.143453
     25          6           0        6.867838   31.568628   13.737830
     26          6           0        5.912925   30.518591   13.659750
     27          6           0        6.633462   32.754431   13.017581
     28          7           0        6.354883   29.499219   14.491931
     29          6           0        4.761641   30.607626   12.870784
     30          6           0        5.480028   32.856619   12.251034
     31          6           0        4.558506   31.791223   12.169985
     32          1           0       10.929434   29.941888   16.001787
     33          1           0       10.429573   31.198170   13.378518
     34          1           0        9.082348   32.927253   14.627649
     35          1           0        9.266720   31.988692   16.100499
     36          1           0        7.978559   29.272344   15.874069
     37          1           0        5.769388   28.743105   14.819810
     38          1           0        7.330345   33.586402   13.077332
     39          1           0        4.041024   29.795956   12.827728
     40          1           0        5.276722   33.774517   11.707129
     41          1           0        3.664423   31.903947   11.564282
     42          7           0       12.000128   33.209832   14.273702
     43          6           0       11.805896   33.552404   12.870070
     44          6           0       12.146976   32.379724   11.941435
     45          8           0       12.916312   31.502519   12.323399
     46          6           0       12.778436   34.748093   12.554447
     47          6           0       14.244546   34.335788   12.479982
     48          8           0       12.454852   35.348119   11.311874
     49          1           0       11.705865   35.944851   11.451595
     50          1           0       12.774778   33.671155   14.738964
     51          1           0       10.784041   33.906067   12.700307
     52          1           0       12.636632   35.468514   13.375291
     53          1           0       14.417033   33.735575   11.582528
     54          1           0       14.555036   33.743673   13.345427
     55          1           0       14.865314   35.233060   12.418723
     56          7           0       11.683359   32.372301   10.649674
     57          6           0       10.430991   32.839817   10.040748
     58          6           0       10.230031   34.348210    9.856608
     59          8           0       10.449868   34.936972    8.827783
     60          6           0        9.193263   32.174396   10.667343
     61          6           0        7.873721   32.356538    9.894481
     62          6           0        7.965304   32.216132    8.368658
     63          7           0        8.689180   31.004883    7.966513
     64          6           0        9.270362   30.869603    6.770812
     65          7           0        8.856658   31.622531    5.730377
     66          7           0       10.270310   30.000435    6.624586
     67          8           0        9.602116   34.945405   10.914730
     68          1           0        9.392464   35.855260   10.626425
     69          1           0       12.049719   31.561257   10.151807
     70          1           0       10.525330   32.488555    9.012972
     71          1           0        9.052418   32.539765   11.688951
     72          1           0        9.426745   31.112225   10.718097
     73          1           0        7.145262   31.640900   10.288061
     74          1           0        7.454776   33.347450   10.095895
     75          1           0        6.945290   32.208875    7.960883
     76          1           0        8.484124   33.083616    7.942235
     77          1           0        8.925028   30.289590    8.677918
     78          1           0        9.389724   31.664694    4.874661
     79          1           0        7.959647   32.083459    5.742692
     80          1           0       10.809639   29.742760    7.475026
     81          1           0       10.621348   29.762707    5.708447
 ---------------------------------------------------------------------

 SCF Done:  E(RB3LYP) =  -2054.05944622     A.U. after    2 cycles

 Alpha  occ. eigenvalues --  -19.31198 -19.25074 -19.24535 -19.22925 -19.21595
 Alpha  occ. eigenvalues --  -19.21560 -19.21418 -19.20902 -14.54463 -14.50321
 Alpha  occ. eigenvalues --  -14.49062 -14.48365 -14.47674 -14.46046 -14.45701
 Alpha  occ. eigenvalues --  -14.45483 -10.45394 -10.43229 -10.39663 -10.39536
 Alpha  occ. eigenvalues --  -10.38875 -10.38505 -10.36312 -10.35180 -10.34860
 Alpha  occ. eigenvalues --  -10.34825 -10.34517 -10.33573 -10.32736 -10.32571
 Alpha  occ. eigenvalues --  -10.30577 -10.30217 -10.30192 -10.29939 -10.29435
 Alpha  occ. eigenvalues --  -10.29395 -10.29343 -10.29122 -10.28747 -10.28730
 Alpha  occ. eigenvalues --  -10.28479 -10.25610  -1.21716  -1.15414  -1.14122
 Alpha  occ. eigenvalues --   -1.13926  -1.13755  -1.12903  -1.12765  -1.12152
 Alpha  occ. eigenvalues --   -1.09790  -1.08629  -1.06082  -1.03410  -1.02452
 Alpha  occ. eigenvalues --   -1.02424  -1.01957  -1.01877  -0.94446  -0.91645
 Alpha  occ. eigenvalues --   -0.91330  -0.90429  -0.87333  -0.86168  -0.85636
 Alpha  occ. eigenvalues --   -0.84037  -0.82954  -0.82253  -0.80719  -0.79954
 Alpha  occ. eigenvalues --   -0.77337  -0.76597  -0.74300  -0.73699  -0.72689
 Alpha  occ. eigenvalues --   -0.72433  -0.71433  -0.70806  -0.70308  -0.69695
 Alpha  occ. eigenvalues --   -0.68739  -0.68499  -0.67800  -0.66964  -0.66311
 Alpha  occ. eigenvalues --   -0.65927  -0.64303  -0.63764  -0.63468  -0.62971
 Alpha  occ. eigenvalues --   -0.62445  -0.62104  -0.60818  -0.60147  -0.59815
 Alpha  occ. eigenvalues --   -0.59201  -0.59131  -0.58736  -0.58469  -0.58047
 Alpha  occ. eigenvalues --   -0.57713  -0.57326  -0.56681  -0.56671  -0.55747
 Alpha  occ. eigenvalues --   -0.55603  -0.54701  -0.54328  -0.54033  -0.53781
 Alpha  occ. eigenvalues --   -0.53517  -0.53395  -0.52692  -0.52448  -0.52313
 Alpha  occ. eigenvalues --   -0.51661  -0.51299  -0.51223  -0.50475  -0.50194
 Alpha  occ. eigenvalues --   -0.49956  -0.49828  -0.49386  -0.48788  -0.48337
 Alpha  occ. eigenvalues --   -0.47721  -0.47629  -0.47323  -0.47060  -0.46710
 Alpha  occ. eigenvalues --   -0.46493  -0.46182  -0.45923  -0.45655  -0.45518
 Alpha  occ. eigenvalues --   -0.44955  -0.44345  -0.43813  -0.43677  -0.43455
 Alpha  occ. eigenvalues --   -0.42099  -0.40864  -0.39178  -0.38410  -0.38187
 Alpha  occ. eigenvalues --   -0.38082  -0.37636  -0.37284  -0.36032  -0.35708
 Alpha  occ. eigenvalues --   -0.35484  -0.35062  -0.34750  -0.34534  -0.34015
 Alpha  occ. eigenvalues --   -0.33085  -0.31129
 Alpha virt. eigenvalues --   -0.12137  -0.11148  -0.10012  -0.09822  -0.09591
 Alpha virt. eigenvalues --   -0.08595  -0.07700  -0.07401  -0.06473  -0.05843
 Alpha virt. eigenvalues --   -0.05143  -0.04630  -0.02855  -0.02457  -0.01705

 Mulliken charges:
               1
     1  N   -0.812755
     2  C   -0.099499
     3  C    0.578359
     4  O   -0.486930
     5  C   -0.339395
     6  C   -0.347332
     7  C    0.613951
     8  O   -0.571554
     9  O   -0.623664
    10  H    0.443970
    11  H    0.209926
    12  H    0.221473
    13  H    0.204597
    14  H    0.167296
    15  H    0.195488
    16  H    0.403478
    17  H    0.407616
    18  N   -0.565269
    19  C   -0.085149
    20  C    0.652909
    21  O   -0.505313
    22  C   -0.359687
    23  C    0.035513
    24  C   -0.037631
    25  C    0.066305
    26  C    0.279978
    27  C   -0.213675
    28  N   -0.692246
    29  C   -0.162961
    30  C   -0.143114
    31  C   -0.153878
    32  H    0.369169
    33  H    0.129905
    34  H    0.167084
    35  H    0.194482
    36  H    0.206760
    37  H    0.354093
    38  H    0.141325
    39  H    0.151371
    40  H    0.139650
    41  H    0.151521
    42  N   -0.622997
    43  C   -0.045195
    44  C    0.581343
    45  O   -0.506284
    46  C    0.077642
    47  C   -0.457695
    48  O   -0.601871
    49  H    0.396106
    50  H    0.350222
    51  H    0.167612
    52  H    0.147128
    53  H    0.185494
    54  H    0.167968
    55  H    0.177512
    56  N   -0.604411
    57  C   -0.042831
    58  C    0.617850
    59  O   -0.440577
    60  C   -0.327613
    61  C   -0.304097
    62  C   -0.169010
    63  N   -0.632916
    64  C    0.780076
    65  N   -0.757168
    66  N   -0.786719
    67  O   -0.587314
    68  H    0.419919
    69  H    0.369187
    70  H    0.187123
    71  H    0.161721
    72  H    0.155318
    73  H    0.175116
    74  H    0.167700
    75  H    0.169396
    76  H    0.184482
    77  H    0.419162
    78  H    0.374769
    79  H    0.377804
    80  H    0.432877
    81  H    0.357003
 Sum of Mulliken charges =   1.00000

 Dipole moment (field-independent basis, Debye):
    X=             37.9382    Y=            151.5295    Z=             46.3037  Tot=            162.9249
 Quadrupole moment (field-independent basis, Debye-Ang):
   XX=             64.8923   YY=           4573.0857   ZZ=            255.5205
   XY=           1209.1310   XZ=            347.8396   YZ=           1469.3884

 Normal termination of Gaussian 16 at Fri May 27 05:10:33 2022.
