 Gaussian 16, Revision C.01,
 Gaussian 16:  ES64L-G16RevC.01  3-Jul-2019

 ----------------------------------------------------------------------
 # B3LYP/6-31G* empiricaldispersion=gd3 guess=read geom=check nosymm in
 tegral(ultrafinegrid)
 ----------------------------------------------------------------------

 ------------------------------------------------------
 Candidate Structure: Conf:727 Charge calc in gas phase
 ------------------------------------------------------
 Structure from the checkpoint file:  "conf-727.chk"
 Charge =  1 Multiplicity = 1

                          Input orientation:
 ---------------------------------------------------------------------
 Center     Atomic      Atomic             Coordinates (Angstroms)
 Number     Number       Type             X           Y           Z
 ---------------------------------------------------------------------
      1          7           0        9.698337   28.996795   13.455540
      2          6           0       10.063879   27.918345   12.502639
      3          6           0       11.573213   27.641601   12.305794
      4          8           0       12.022621   26.561360   12.663712
      5          6           0        9.343024   28.095992   11.152369
      6          6           0        7.812298   27.880892   11.211458
      7          6           0        6.981004   29.085355   11.624521
      8          8           0        5.945887   29.383948   11.031580
      9          8           0        7.391736   29.827725   12.637619
     10          1           0        8.282460   29.472759   13.073398
     11          1           0        9.707148   26.986547   12.948514
     12          1           0        9.571990   29.075775   10.713862
     13          1           0        9.757148   27.354834   10.461461
     14          1           0        7.579858   27.060961   11.905482
     15          1           0        7.435940   27.574919   10.232948
     16          1           0        9.851910   28.689108   14.415119
     17          1           0       10.295453   29.816348   13.354376
     18          7           0       12.346263   28.527445   11.598241
     19          6           0       12.263233   29.968128   11.464042
     20          6           0       12.780390   30.339324   10.059895
     21          8           0       13.560376   29.600250    9.480843
     22          6           0       13.140483   30.674728   12.547210
     23          6           0       12.597709   30.496197   13.928205
     24          6           0       12.765414   29.416489   14.762929
     25          6           0       11.665868   31.383712   14.583036
     26          6           0       11.300481   30.774637   15.816050
     27          6           0       11.105584   32.629706   14.245083
     28          7           0       11.971959   29.566807   15.885849
     29          6           0       10.399357   31.370078   16.705030
     30          6           0       10.210367   33.223635   15.126626
     31          6           0        9.858354   32.598464   16.341990
     32          1           0       13.254743   28.148484   11.344891
     33          1           0       11.222833   30.280707   11.577098
     34          1           0       13.212922   31.742582   12.316227
     35          1           0       14.153659   30.268330   12.453258
     36          1           0       13.362461   28.525449   14.626367
     37          1           0       12.020727   28.977081   16.704069
     38          1           0       11.386650   33.137209   13.326045
     39          1           0       10.136360   30.895545   17.646104
     40          1           0        9.783857   34.193554   14.886889
     41          1           0        9.161310   33.091413   17.012879
     42          7           0       12.384503   31.532101    9.511572
     43          6           0       11.482429   32.544273   10.024971
     44          6           0       10.525212   32.938537    8.883926
     45          8           0       10.949387   32.875139    7.736145
     46          6           0       12.290690   33.787480   10.496926
     47          6           0       12.959668   34.587259    9.388127
     48          8           0       11.367021   34.604213   11.256652
     49          1           0       11.863875   35.334338   11.662924
     50          1           0       12.677978   31.667215    8.548461
     51          1           0       10.950364   32.154333   10.888326
     52          1           0       13.053828   33.409118   11.186741
     53          1           0       13.643336   33.953964    8.815633
     54          1           0       13.548417   35.403737    9.821111
     55          1           0       12.224647   35.010200    8.698372
     56          7           0        9.267082   33.446560    9.101370
     57          6           0        8.291558   33.593003   10.193058
     58          6           0        8.017042   35.086761   10.461158
     59          8           0        6.875762   35.522654   10.478735
     60          6           0        8.572651   32.828391   11.497111
     61          6           0        7.619044   33.121077   12.674667
     62          6           0        6.098578   33.158033   12.419857
     63          7           0        5.624158   32.171373   11.448678
     64          6           0        4.890581   32.416191   10.362516
     65          7           0        4.746242   33.656210    9.868509
     66          7           0        4.267531   31.381040    9.760398
     67          8           0        9.056338   35.871526   10.684760
     68          1           0        9.906876   35.361263   10.682232
     69          1           0        8.877614   33.708733    8.199667
     70          1           0        7.354945   33.208294    9.788578
     71          1           0        9.569584   33.068998   11.864696
     72          1           0        8.547148   31.757898   11.265461
     73          1           0        7.841710   32.367329   13.434248
     74          1           0        7.882418   34.087372   13.121239
     75          1           0        5.580974   32.972964   13.367590
     76          1           0        5.798066   34.148141   12.085427
     77          1           0        5.759849   31.179908   11.662833
     78          1           0        4.078039   33.829428    9.131947
     79          1           0        5.391910   34.413455   10.117097
     80          1           0        4.490768   30.444946   10.088476
     81          1           0        4.001804   31.464831    8.789333
 ---------------------------------------------------------------------

 SCF Done:  E(RB3LYP) =  -2054.07156253     A.U. after    1 cycles

 Alpha  occ. eigenvalues --  -19.30146 -19.29632 -19.27842 -19.25358 -19.24539
 Alpha  occ. eigenvalues --  -19.23018 -19.21236 -19.20405 -14.49096 -14.49084
 Alpha  occ. eigenvalues --  -14.49059 -14.48404 -14.48172 -14.46371 -14.46247
 Alpha  occ. eigenvalues --  -14.44979 -10.45878 -10.43451 -10.42790 -10.41006
 Alpha  occ. eigenvalues --  -10.39017 -10.38177 -10.37108 -10.36627 -10.35987
 Alpha  occ. eigenvalues --  -10.34770 -10.34097 -10.33796 -10.32033 -10.31894
 Alpha  occ. eigenvalues --  -10.31534 -10.30766 -10.30721 -10.30405 -10.30157
 Alpha  occ. eigenvalues --  -10.28765 -10.28728 -10.28647 -10.28528 -10.28459
 Alpha  occ. eigenvalues --  -10.28209 -10.28115  -1.21318  -1.19833  -1.16712
 Alpha  occ. eigenvalues --   -1.15481  -1.14331  -1.13617  -1.12877  -1.12440
 Alpha  occ. eigenvalues --   -1.11168  -1.07993  -1.04173  -1.03579  -1.03034
 Alpha  occ. eigenvalues --   -1.02638  -1.02282  -1.01470  -0.93879  -0.92041
 Alpha  occ. eigenvalues --   -0.90830  -0.90156  -0.89480  -0.86479  -0.85904
 Alpha  occ. eigenvalues --   -0.83501  -0.83055  -0.82265  -0.81694  -0.80445
 Alpha  occ. eigenvalues --   -0.77212  -0.76598  -0.74508  -0.74061  -0.73107
 Alpha  occ. eigenvalues --   -0.72606  -0.72057  -0.71268  -0.70266  -0.69990
 Alpha  occ. eigenvalues --   -0.69583  -0.69026  -0.68284  -0.67782  -0.66225
 Alpha  occ. eigenvalues --   -0.65818  -0.64655  -0.64004  -0.63813  -0.63095
 Alpha  occ. eigenvalues --   -0.62766  -0.62400  -0.61534  -0.60654  -0.60233
 Alpha  occ. eigenvalues --   -0.59769  -0.59206  -0.58562  -0.58192  -0.58014
 Alpha  occ. eigenvalues --   -0.57692  -0.57309  -0.56949  -0.56701  -0.56506
 Alpha  occ. eigenvalues --   -0.55929  -0.55697  -0.55259  -0.54846  -0.54447
 Alpha  occ. eigenvalues --   -0.54091  -0.53428  -0.53342  -0.52976  -0.52316
 Alpha  occ. eigenvalues --   -0.52025  -0.51747  -0.51471  -0.51108  -0.50959
 Alpha  occ. eigenvalues --   -0.50590  -0.50024  -0.49667  -0.49298  -0.48722
 Alpha  occ. eigenvalues --   -0.48471  -0.48099  -0.47990  -0.47867  -0.47411
 Alpha  occ. eigenvalues --   -0.47166  -0.47104  -0.46226  -0.45863  -0.45544
 Alpha  occ. eigenvalues --   -0.45432  -0.45161  -0.44912  -0.43352  -0.43245
 Alpha  occ. eigenvalues --   -0.42387  -0.41781  -0.41663  -0.40658  -0.40376
 Alpha  occ. eigenvalues --   -0.40156  -0.38415  -0.38266  -0.37781  -0.37271
 Alpha  occ. eigenvalues --   -0.36552  -0.35622  -0.35278  -0.34164  -0.33276
 Alpha  occ. eigenvalues --   -0.32421  -0.30371
 Alpha virt. eigenvalues --   -0.11605  -0.11265  -0.10336  -0.09855  -0.09652
 Alpha virt. eigenvalues --   -0.08270  -0.07907  -0.07599  -0.06401  -0.05583
 Alpha virt. eigenvalues --   -0.05133  -0.03882  -0.02555  -0.02261  -0.01403

 Mulliken charges:
               1
     1  N   -0.838162
     2  C   -0.057889
     3  C    0.578741
     4  O   -0.488408
     5  C   -0.308413
     6  C   -0.376122
     7  C    0.621526
     8  O   -0.533473
     9  O   -0.616067
    10  H    0.479967
    11  H    0.192642
    12  H    0.150701
    13  H    0.200340
    14  H    0.195760
    15  H    0.196199
    16  H    0.359283
    17  H    0.372039
    18  N   -0.575173
    19  C   -0.087596
    20  C    0.623719
    21  O   -0.484711
    22  C   -0.364934
    23  C    0.046642
    24  C    0.000932
    25  C    0.042357
    26  C    0.301891
    27  C   -0.230400
    28  N   -0.686108
    29  C   -0.161922
    30  C   -0.150103
    31  C   -0.152380
    32  H    0.358040
    33  H    0.134591
    34  H    0.157645
    35  H    0.185013
    36  H    0.195369
    37  H    0.349697
    38  H    0.135416
    39  H    0.150499
    40  H    0.133704
    41  H    0.149390
    42  N   -0.613075
    43  C   -0.076983
    44  C    0.619477
    45  O   -0.494187
    46  C    0.115229
    47  C   -0.476992
    48  O   -0.653521
    49  H    0.431923
    50  H    0.369057
    51  H    0.162136
    52  H    0.170164
    53  H    0.187833
    54  H    0.164394
    55  H    0.187479
    56  N   -0.639958
    57  C   -0.063714
    58  C    0.628281
    59  O   -0.483112
    60  C   -0.326752
    61  C   -0.292932
    62  C   -0.170594
    63  N   -0.616119
    64  C    0.760780
    65  N   -0.790794
    66  N   -0.768838
    67  O   -0.572317
    68  H    0.460040
    69  H    0.352507
    70  H    0.168342
    71  H    0.190631
    72  H    0.160103
    73  H    0.185321
    74  H    0.169465
    75  H    0.191338
    76  H    0.196622
    77  H    0.404697
    78  H    0.367144
    79  H    0.424238
    80  H    0.411814
    81  H    0.360634
 Sum of Mulliken charges =   1.00000

 Dipole moment (field-independent basis, Debye):
    X=             39.3744    Y=            154.1094    Z=             58.0447  Tot=            169.3199
 Quadrupole moment (field-independent basis, Debye-Ang):
   XX=            129.8154   YY=           4711.2419   ZZ=            495.3381
   XY=           1279.1125   XZ=            515.3081   YZ=           1840.6516

 Normal termination of Gaussian 16 at Fri May 27 05:09:58 2022.
