 Gaussian 16, Revision C.01,
 Gaussian 16:  ES64L-G16RevC.01  3-Jul-2019

 ----------------------------------------------------------------------
 # B3LYP/6-31G* empiricaldispersion=gd3 guess=read geom=check nosymm in
 tegral(ultrafinegrid)
 ----------------------------------------------------------------------

 ------------------------------------------------------
 Candidate Structure: Conf:879 Charge calc in gas phase
 ------------------------------------------------------
 Structure from the checkpoint file:  "conf-879.chk"
 Charge =  1 Multiplicity = 1

                          Input orientation:
 ---------------------------------------------------------------------
 Center     Atomic      Atomic             Coordinates (Angstroms)
 Number     Number       Type             X           Y           Z
 ---------------------------------------------------------------------
      1          7           0       10.539174   28.867529   13.234127
      2          6           0       11.928451   29.258069   13.695844
      3          6           0       11.920360   29.768904   15.151685
      4          8           0       12.621600   29.204192   15.971724
      5          6           0       12.634191   30.200307   12.701182
      6          6           0       13.055922   29.573134   11.360453
      7          6           0       11.952496   29.388619   10.317200
      8          8           0       12.221312   29.612031    9.123949
      9          8           0       10.787431   28.976775   10.712822
     10          1           0       10.570360   28.836353   12.105064
     11          1           0       12.495119   28.326216   13.743400
     12          1           0       12.039328   31.093300   12.500343
     13          1           0       13.536019   30.550046   13.215813
     14          1           0       13.516002   28.589204   11.530401
     15          1           0       13.824544   30.198013   10.900086
     16          1           0       10.278635   27.956276   13.617431
     17          1           0        9.814814   29.527480   13.549517
     18          7           0       11.072042   30.798635   15.490435
     19          6           0       10.570687   31.850160   14.611045
     20          6           0       11.597339   33.002083   14.558964
     21          8           0       12.412296   33.138925   15.458711
     22          6           0        9.167376   32.304444   15.074190
     23          6           0        8.106979   31.310977   14.692865
     24          6           0        7.941360   30.029349   15.173056
     25          6           0        7.060708   31.523521   13.720079
     26          6           0        6.296231   30.326649   13.656802
     27          6           0        6.678192   32.620679   12.925817
     28          7           0        6.872087   29.424217   14.531694
     29          6           0        5.174623   30.198084   12.828462
     30          6           0        5.560672   32.500435   12.110728
     31          6           0        4.816018   31.301978   12.063767
     32          1           0       11.297008   31.145357   16.421261
     33          1           0       10.455023   31.441840   13.609196
     34          1           0        8.936635   33.273403   14.619995
     35          1           0        9.200151   32.478478   16.156339
     36          1           0        8.483712   29.512932   15.952968
     37          1           0        6.444764   28.558269   14.825525
     38          1           0        7.237435   33.551870   12.943654
     39          1           0        4.594843   29.279681   12.801074
     40          1           0        5.251109   33.344592   11.501881
     41          1           0        3.941275   31.243333   11.422749
     42          7           0       11.546359   33.837197   13.479290
     43          6           0       10.704558   33.756143   12.292574
     44          6           0       11.621878   33.475557   11.082509
     45          8           0       12.755115   33.939461   11.092452
     46          6           0        9.868171   35.061480   12.149305
     47          6           0       10.697776   36.307712   11.857434
     48          8           0        8.841410   34.864690   11.181859
     49          1           0        9.190366   35.150828   10.322331
     50          1           0       12.345324   34.458714   13.403531
     51          1           0        9.986715   32.951354   12.420147
     52          1           0        9.355551   35.185759   13.110832
     53          1           0       11.248506   36.204905   10.915860
     54          1           0       11.426199   36.500132   12.650619
     55          1           0       10.033495   37.174414   11.790770
     56          7           0       11.241949   32.634628   10.055423
     57          6           0        9.959129   32.249515    9.462501
     58          6           0        9.328530   33.316928    8.562829
     59          8           0        8.357200   33.118887    7.868964
     60          6           0        8.946447   31.650723   10.461868
     61          6           0        7.690798   30.955059    9.895260
     62          6           0        7.803092   30.142934    8.600502
     63          7           0        8.954682   29.231050    8.567288
     64          6           0        9.396250   28.671001    7.439658
     65          7           0        8.589409   28.597554    6.360564
     66          7           0       10.642465   28.191080    7.387639
     67          8           0        9.981559   34.509626    8.568636
     68          1           0        9.543887   35.068156    7.895443
     69          1           0       12.015543   32.547987    9.402450
     70          1           0       10.230581   31.446509    8.768386
     71          1           0        8.584245   32.434856   11.124791
     72          1           0        9.522140   30.936567   11.055544
     73          1           0        7.289343   30.327556   10.698617
     74          1           0        6.923149   31.707467    9.698464
     75          1           0        6.870593   29.572270    8.485591
     76          1           0        7.885903   30.832985    7.756089
     77          1           0        9.561496   29.126170    9.396983
     78          1           0        8.948049   28.319271    5.459808
     79          1           0        7.596027   28.752708    6.438163
     80          1           0       11.343814   28.622795    8.021482
     81          1           0       10.955968   27.670248    6.581661
 ---------------------------------------------------------------------

 SCF Done:  E(RB3LYP) =  -2054.06625086     A.U. after    1 cycles

 Alpha  occ. eigenvalues --  -19.31507 -19.25408 -19.24281 -19.23953 -19.22222
 Alpha  occ. eigenvalues --  -19.21838 -19.21608 -19.20701 -14.53835 -14.50090
 Alpha  occ. eigenvalues --  -14.48016 -14.47956 -14.47364 -14.46328 -14.46303
 Alpha  occ. eigenvalues --  -14.45405 -10.45073 -10.43451 -10.40324 -10.39889
 Alpha  occ. eigenvalues --  -10.39129 -10.38288 -10.36769 -10.35387 -10.34594
 Alpha  occ. eigenvalues --  -10.33927 -10.33629 -10.33487 -10.32104 -10.31654
 Alpha  occ. eigenvalues --  -10.31289 -10.30168 -10.29642 -10.29442 -10.29234
 Alpha  occ. eigenvalues --  -10.28859 -10.28296 -10.28221 -10.27804 -10.27697
 Alpha  occ. eigenvalues --  -10.27159 -10.26499  -1.22111  -1.16103  -1.14555
 Alpha  occ. eigenvalues --   -1.14000  -1.13648  -1.13093  -1.12738  -1.11824
 Alpha  occ. eigenvalues --   -1.09412  -1.07788  -1.06657  -1.02991  -1.02918
 Alpha  occ. eigenvalues --   -1.02503  -1.01972  -1.01668  -0.93327  -0.91413
 Alpha  occ. eigenvalues --   -0.90711  -0.90493  -0.87010  -0.85891  -0.85363
 Alpha  occ. eigenvalues --   -0.83304  -0.82896  -0.81428  -0.81102  -0.79550
 Alpha  occ. eigenvalues --   -0.77048  -0.76279  -0.74614  -0.73820  -0.72555
 Alpha  occ. eigenvalues --   -0.72038  -0.71590  -0.71065  -0.70360  -0.69292
 Alpha  occ. eigenvalues --   -0.68689  -0.68389  -0.67521  -0.66257  -0.66147
 Alpha  occ. eigenvalues --   -0.65767  -0.63867  -0.63746  -0.63384  -0.63040
 Alpha  occ. eigenvalues --   -0.62473  -0.61275  -0.60781  -0.59968  -0.59857
 Alpha  occ. eigenvalues --   -0.59280  -0.59172  -0.58294  -0.57928  -0.57467
 Alpha  occ. eigenvalues --   -0.57260  -0.57087  -0.56586  -0.55980  -0.55166
 Alpha  occ. eigenvalues --   -0.55004  -0.54666  -0.54442  -0.54214  -0.53755
 Alpha  occ. eigenvalues --   -0.53587  -0.52815  -0.52609  -0.52421  -0.52165
 Alpha  occ. eigenvalues --   -0.51549  -0.51315  -0.51147  -0.50625  -0.50392
 Alpha  occ. eigenvalues --   -0.50312  -0.49933  -0.49537  -0.49346  -0.48514
 Alpha  occ. eigenvalues --   -0.48280  -0.47943  -0.47507  -0.46559  -0.46252
 Alpha  occ. eigenvalues --   -0.46052  -0.45861  -0.45616  -0.45383  -0.45041
 Alpha  occ. eigenvalues --   -0.44564  -0.44308  -0.43575  -0.42853  -0.42461
 Alpha  occ. eigenvalues --   -0.41725  -0.40635  -0.40329  -0.38753  -0.38457
 Alpha  occ. eigenvalues --   -0.38103  -0.37363  -0.37341  -0.37007  -0.36122
 Alpha  occ. eigenvalues --   -0.36104  -0.35048  -0.34807  -0.34532  -0.33550
 Alpha  occ. eigenvalues --   -0.31942  -0.30183
 Alpha virt. eigenvalues --   -0.11081  -0.10817  -0.10091  -0.09527  -0.09061
 Alpha virt. eigenvalues --   -0.08073  -0.07539  -0.07222  -0.06144  -0.05760
 Alpha virt. eigenvalues --   -0.04392  -0.03864  -0.03028  -0.02358  -0.01580

 Mulliken charges:
               1
     1  N   -0.817448
     2  C   -0.096233
     3  C    0.587007
     4  O   -0.457764
     5  C   -0.321617
     6  C   -0.367636
     7  C    0.651629
     8  O   -0.563866
     9  O   -0.653305
    10  H    0.463155
    11  H    0.212272
    12  H    0.175639
    13  H    0.213366
    14  H    0.181525
    15  H    0.202220
    16  H    0.387959
    17  H    0.406971
    18  N   -0.579170
    19  C   -0.102511
    20  C    0.613321
    21  O   -0.487770
    22  C   -0.359266
    23  C    0.051201
    24  C   -0.043303
    25  C    0.077543
    26  C    0.305327
    27  C   -0.223683
    28  N   -0.684651
    29  C   -0.168937
    30  C   -0.148157
    31  C   -0.149784
    32  H    0.362747
    33  H    0.125891
    34  H    0.176663
    35  H    0.186716
    36  H    0.176585
    37  H    0.343196
    38  H    0.159450
    39  H    0.142213
    40  H    0.147868
    41  H    0.145855
    42  N   -0.594806
    43  C   -0.090457
    44  C    0.597331
    45  O   -0.492846
    46  C    0.134429
    47  C   -0.498508
    48  O   -0.652644
    49  H    0.419085
    50  H    0.363589
    51  H    0.159867
    52  H    0.157217
    53  H    0.174348
    54  H    0.172177
    55  H    0.177792
    56  N   -0.618668
    57  C   -0.056890
    58  C    0.600529
    59  O   -0.444883
    60  C   -0.330628
    61  C   -0.294570
    62  C   -0.174859
    63  N   -0.637967
    64  C    0.779676
    65  N   -0.760033
    66  N   -0.789155
    67  O   -0.575224
    68  H    0.431244
    69  H    0.354221
    70  H    0.198506
    71  H    0.211428
    72  H    0.144277
    73  H    0.166204
    74  H    0.185585
    75  H    0.159123
    76  H    0.201697
    77  H    0.421931
    78  H    0.371865
    79  H    0.379428
    80  H    0.426048
    81  H    0.353325
 Sum of Mulliken charges =   1.00000

 Dipole moment (field-independent basis, Debye):
    X=             40.6941    Y=            142.2533    Z=             46.6697  Tot=            155.1454
 Quadrupole moment (field-independent basis, Debye-Ang):
   XX=             98.4371   YY=           4012.7004   ZZ=            261.7373
   XY=           1202.3196   XZ=            375.4105   YZ=           1379.9863

 Normal termination of Gaussian 16 at Fri May 27 05:10:01 2022.
