 Gaussian 16, Revision C.01,
 Gaussian 16:  ES64L-G16RevC.01  3-Jul-2019

 ----------------------------------------------------------------------
 # B3LYP/6-31G* empiricaldispersion=gd3 guess=read geom=check nosymm in
 tegral(ultrafinegrid)
 ----------------------------------------------------------------------

 ------------------------------------------------------
 Candidate Structure: Conf:306 Charge calc in gas phase
 ------------------------------------------------------
 Structure from the checkpoint file:  "conf-306.chk"
 Charge =  1 Multiplicity = 1

                          Input orientation:
 ---------------------------------------------------------------------
 Center     Atomic      Atomic             Coordinates (Angstroms)
 Number     Number       Type             X           Y           Z
 ---------------------------------------------------------------------
      1          7           0       11.207352   29.626482   14.041020
      2          6           0       12.418285   29.173173   13.249076
      3          6           0       13.612954   30.113412   13.512845
      4          8           0       14.625493   29.650376   14.003477
      5          6           0       12.086437   28.940334   11.766297
      6          6           0       11.161938   27.749933   11.444432
      7          6           0        9.667517   27.967327   11.691942
      8          8           0        8.859956   27.616996   10.813817
      9          8           0        9.294458   28.499727   12.817433
     10          1           0       11.323588   29.398530   15.031235
     11          1           0       12.718374   28.222040   13.693203
     12          1           0       11.673482   29.835538   11.305464
     13          1           0       13.046674   28.774274   11.266467
     14          1           0       11.469440   26.863669   12.017123
     15          1           0       11.273302   27.505306   10.386319
     16          1           0       11.071788   30.643358   13.987954
     17          1           0       10.305581   29.096498   13.599675
     18          7           0       13.457552   31.468943   13.292527
     19          6           0       12.626001   32.104340   12.272322
     20          6           0       13.310269   31.976779   10.887073
     21          8           0       14.484465   31.653243   10.813610
     22          6           0       12.343413   33.571927   12.677370
     23          6           0       11.288185   33.681999   13.742561
     24          6           0       11.348949   33.215258   15.037521
     25          6           0        9.990581   34.297375   13.591391
     26          6           0        9.314089   34.167332   14.835327
     27          6           0        9.332991   34.935714   12.521340
     28          7           0       10.157028   33.485891   15.690017
     29          6           0        8.020450   34.663566   15.041788
     30          6           0        8.043843   35.420463   12.719718
     31          6           0        7.396771   35.291347   13.971023
     32          1           0       14.364479   31.922588   13.384917
     33          1           0       11.663564   31.593134   12.236342
     34          1           0       12.027867   34.134034   11.793471
     35          1           0       13.289528   34.028526   12.993825
     36          1           0       12.170359   32.743451   15.558574
     37          1           0       10.010222   33.383082   16.683361
     38          1           0        9.808016   35.045972   11.551119
     39          1           0        7.526736   34.568111   16.004797
     40          1           0        7.533735   35.931195   11.907615
     41          1           0        6.398558   35.699309   14.098380
     42          7           0       12.553817   32.267314    9.781957
     43          6           0       11.101497   32.341053    9.717483
     44          6           0       10.546734   30.951666    9.327436
     45          8           0       11.275480   30.177678    8.714701
     46          6           0       10.658406   33.468872    8.743601
     47          6           0       10.450695   33.014552    7.303287
     48          8           0        9.465159   34.011097    9.320447
     49          1           0        8.856645   34.284074    8.615123
     50          1           0       13.004782   31.965903    8.922890
     51          1           0       10.727806   32.648291   10.689824
     52          1           0       11.449742   34.229653    8.786310
     53          1           0       11.337452   32.498322    6.922125
     54          1           0       10.259929   33.879290    6.658440
     55          1           0        9.597717   32.331596    7.235328
     56          7           0        9.277339   30.575647    9.666723
     57          6           0        8.216340   31.208905   10.448339
     58          6           0        7.471153   32.307024    9.655169
     59          8           0        7.217389   32.174129    8.485381
     60          6           0        8.639211   31.516924   11.899659
     61          6           0        7.523231   31.657963   12.963037
     62          6           0        6.270093   30.801655   12.762020
     63          7           0        6.594561   29.382488   12.581273
     64          6           0        5.753122   28.496579   12.037552
     65          7           0        4.433993   28.774792   11.972305
     66          7           0        6.235167   27.356611   11.544717
     67          8           0        6.953370   33.340071   10.364560
     68          1           0        7.511260   33.567878   11.130522
     69          1           0        9.076774   29.633138    9.347469
     70          1           0        7.461233   30.418985   10.504076
     71          1           0        9.250970   32.418161   11.946998
     72          1           0        9.277410   30.681544   12.184877
     73          1           0        7.965179   31.430862   13.940551
     74          1           0        7.180324   32.693388   13.039454
     75          1           0        5.615201   30.937177   13.633562
     76          1           0        5.720515   31.156392   11.881051
     77          1           0        7.565875   29.061091   12.732292
     78          1           0        3.804203   28.177596   11.457193
     79          1           0        4.020139   29.479592   12.563667
     80          1           0        7.241361   27.323396   11.275417
     81          1           0        5.614332   26.615183   11.254479
 ---------------------------------------------------------------------

 SCF Done:  E(RB3LYP) =  -2054.05727902     A.U. after    1 cycles

 Alpha  occ. eigenvalues --  -19.28068 -19.25192 -19.24505 -19.22743 -19.22491
 Alpha  occ. eigenvalues --  -19.22467 -19.21189 -19.21160 -14.54558 -14.50871
 Alpha  occ. eigenvalues --  -14.49059 -14.48809 -14.48172 -14.46709 -14.46079
 Alpha  occ. eigenvalues --  -14.45443 -10.46019 -10.41309 -10.40788 -10.40286
 Alpha  occ. eigenvalues --  -10.38774 -10.38552 -10.37058 -10.35466 -10.35102
 Alpha  occ. eigenvalues --  -10.35101 -10.34200 -10.33749 -10.32772 -10.32570
 Alpha  occ. eigenvalues --  -10.31278 -10.31210 -10.30725 -10.30578 -10.29662
 Alpha  occ. eigenvalues --  -10.29483 -10.29314 -10.29073 -10.28839 -10.28767
 Alpha  occ. eigenvalues --  -10.28402 -10.26509  -1.18849  -1.16631  -1.15036
 Alpha  occ. eigenvalues --   -1.14552  -1.13805  -1.12984  -1.12284  -1.10833
 Alpha  occ. eigenvalues --   -1.09996  -1.08590  -1.07202  -1.04026  -1.03240
 Alpha  occ. eigenvalues --   -1.02579  -1.02395  -1.02119  -0.94341  -0.91798
 Alpha  occ. eigenvalues --   -0.91662  -0.91175  -0.87472  -0.86445  -0.85721
 Alpha  occ. eigenvalues --   -0.83945  -0.83541  -0.82235  -0.81040  -0.79889
 Alpha  occ. eigenvalues --   -0.77520  -0.76999  -0.74880  -0.73243  -0.72648
 Alpha  occ. eigenvalues --   -0.72384  -0.72163  -0.71388  -0.70848  -0.69944
 Alpha  occ. eigenvalues --   -0.69460  -0.68975  -0.68338  -0.67675  -0.66924
 Alpha  occ. eigenvalues --   -0.66235  -0.64334  -0.64286  -0.64179  -0.63322
 Alpha  occ. eigenvalues --   -0.63030  -0.62575  -0.61434  -0.60764  -0.59636
 Alpha  occ. eigenvalues --   -0.59555  -0.58912  -0.58571  -0.58416  -0.57801
 Alpha  occ. eigenvalues --   -0.57747  -0.57339  -0.56766  -0.55827  -0.55294
 Alpha  occ. eigenvalues --   -0.54998  -0.54871  -0.54732  -0.54124  -0.54052
 Alpha  occ. eigenvalues --   -0.53731  -0.53403  -0.53101  -0.52629  -0.52403
 Alpha  occ. eigenvalues --   -0.52072  -0.51872  -0.51661  -0.51193  -0.50751
 Alpha  occ. eigenvalues --   -0.50325  -0.50109  -0.49774  -0.49254  -0.48837
 Alpha  occ. eigenvalues --   -0.48333  -0.48114  -0.47633  -0.47007  -0.46718
 Alpha  occ. eigenvalues --   -0.46389  -0.46227  -0.46075  -0.45993  -0.45724
 Alpha  occ. eigenvalues --   -0.45463  -0.44965  -0.43941  -0.43593  -0.42632
 Alpha  occ. eigenvalues --   -0.41419  -0.40465  -0.39297  -0.39220  -0.38583
 Alpha  occ. eigenvalues --   -0.38003  -0.37778  -0.37588  -0.36753  -0.36619
 Alpha  occ. eigenvalues --   -0.35825  -0.35439  -0.34989  -0.34873  -0.34107
 Alpha  occ. eigenvalues --   -0.33014  -0.31035
 Alpha virt. eigenvalues --   -0.12095  -0.10792  -0.10504  -0.09415  -0.08760
 Alpha virt. eigenvalues --   -0.08472  -0.08358  -0.07982  -0.06824  -0.06521
 Alpha virt. eigenvalues --   -0.05294  -0.03666  -0.03091  -0.02580  -0.02172

 Mulliken charges:
               1
     1  N   -0.812204
     2  C   -0.096831
     3  C    0.590592
     4  O   -0.452230
     5  C   -0.324010
     6  C   -0.366430
     7  C    0.636205
     8  O   -0.552853
     9  O   -0.647838
    10  H    0.390850
    11  H    0.214583
    12  H    0.173453
    13  H    0.221189
    14  H    0.180928
    15  H    0.214146
    16  H    0.396346
    17  H    0.464157
    18  N   -0.586561
    19  C   -0.096792
    20  C    0.608191
    21  O   -0.482412
    22  C   -0.370868
    23  C    0.066221
    24  C   -0.029346
    25  C    0.066252
    26  C    0.317243
    27  C   -0.244630
    28  N   -0.688504
    29  C   -0.165571
    30  C   -0.185397
    31  C   -0.151520
    32  H    0.359509
    33  H    0.128936
    34  H    0.185935
    35  H    0.186483
    36  H    0.175482
    37  H    0.344639
    38  H    0.176860
    39  H    0.146996
    40  H    0.163216
    41  H    0.153946
    42  N   -0.582605
    43  C   -0.112511
    44  C    0.616683
    45  O   -0.517682
    46  C    0.154239
    47  C   -0.517102
    48  O   -0.653225
    49  H    0.425506
    50  H    0.358297
    51  H    0.162483
    52  H    0.158972
    53  H    0.178443
    54  H    0.171112
    55  H    0.199653
    56  N   -0.606306
    57  C   -0.049408
    58  C    0.619933
    59  O   -0.445025
    60  C   -0.373380
    61  C   -0.311525
    62  C   -0.160953
    63  N   -0.639120
    64  C    0.781632
    65  N   -0.758274
    66  N   -0.787253
    67  O   -0.606007
    68  H    0.439451
    69  H    0.364383
    70  H    0.183979
    71  H    0.191777
    72  H    0.151058
    73  H    0.153505
    74  H    0.182236
    75  H    0.170151
    76  H    0.183704
    77  H    0.421261
    78  H    0.375834
    79  H    0.378754
    80  H    0.430571
    81  H    0.358401
 Sum of Mulliken charges =   1.00000

 Dipole moment (field-independent basis, Debye):
    X=             35.8724    Y=            147.2418    Z=             65.5614  Tot=            165.1220
 Quadrupole moment (field-independent basis, Debye-Ang):
   XX=             45.9685   YY=           4307.7116   ZZ=            668.6669
   XY=           1128.5182   XZ=            502.7265   YZ=           2012.0138

 Normal termination of Gaussian 16 at Fri May 27 05:09:55 2022.
