 Gaussian 16, Revision C.01,
 Gaussian 16:  ES64L-G16RevC.01  3-Jul-2019

 ----------------------------------------------------------------------
 # B3LYP/6-31G* empiricaldispersion=gd3 guess=read geom=check nosymm in
 tegral(ultrafinegrid)
 ----------------------------------------------------------------------

 ------------------------------------------------------
 Candidate Structure: Conf:669 Charge calc in gas phase
 ------------------------------------------------------
 Structure from the checkpoint file:  "conf-669.chk"
 Charge =  1 Multiplicity = 1

                          Input orientation:
 ---------------------------------------------------------------------
 Center     Atomic      Atomic             Coordinates (Angstroms)
 Number     Number       Type             X           Y           Z
 ---------------------------------------------------------------------
      1          7           0        8.807728   33.016807   13.689401
      2          6           0        8.348632   34.237605   12.917048
      3          6           0        6.918047   34.120975   12.343732
      4          8           0        6.078921   34.915931   12.747842
      5          6           0        9.342164   34.672319   11.832181
      6          6           0       10.745697   35.090846   12.319439
      7          6           0       11.685395   33.914595   12.580091
      8          8           0       12.653841   33.733072   11.806059
      9          8           0       11.418873   33.144786   13.578683
     10          1           0        8.618595   32.140761   13.193260
     11          1           0        8.271941   35.024393   13.669784
     12          1           0        9.423632   33.932862   11.032905
     13          1           0        8.873743   35.543611   11.360816
     14          1           0       10.665310   35.685408   13.238795
     15          1           0       11.206002   35.716402   11.552332
     16          1           0        9.879035   33.081918   13.847968
     17          1           0        8.295044   32.930235   14.572989
     18          7           0        6.660358   33.271084   11.307801
     19          6           0        7.252710   32.009408   10.892896
     20          6           0        6.981409   31.878018    9.381336
     21          8           0        5.932920   32.331170    8.941175
     22          6           0        6.530658   30.798181   11.574192
     23          6           0        6.586258   30.818753   13.071859
     24          6           0        5.945819   31.701740   13.912905
     25          6           0        7.366360   29.940447   13.917255
     26          6           0        7.182070   30.372159   15.259486
     27          6           0        8.149264   28.797210   13.674098
     28          7           0        6.347528   31.480607   15.222121
     29          6           0        7.769792   29.718257   16.346829
     30          6           0        8.719386   28.132702   14.752386
     31          6           0        8.539491   28.593083   16.073911
     32          1           0        5.754659   33.431546   10.870462
     33          1           0        8.320860   31.996080   11.115559
     34          1           0        6.974307   29.871248   11.192061
     35          1           0        5.494470   30.817757   11.218713
     36          1           0        5.254191   32.500650   13.686417
     37          1           0        5.863748   31.854161   16.027272
     38          1           0        8.283874   28.422625   12.662833
     39          1           0        7.611851   30.060298   17.365656
     40          1           0        9.309479   27.237589   14.578988
     41          1           0        8.995101   28.048322   16.895248
     42          7           0        7.813402   31.125955    8.603364
     43          6           0        9.210081   30.748202    8.781593
     44          6           0       10.066659   31.923811    9.266691
     45          8           0        9.723051   33.077866    9.030888
     46          6           0        9.738078   30.271049    7.376841
     47          6           0        9.845747   31.391616    6.342941
     48          8           0       10.958009   29.570213    7.513875
     49          1           0       11.694918   30.202298    7.496759
     50          1           0        7.467804   31.104116    7.649955
     51          1           0        9.300921   29.888599    9.451788
     52          1           0        9.013737   29.520259    7.036979
     53          1           0       10.602788   32.125825    6.641144
     54          1           0        8.907573   31.938650    6.212152
     55          1           0       10.133940   30.959930    5.380646
     56          7           0       11.285534   31.672518    9.856041
     57          6           0       11.730797   30.578699   10.740500
     58          6           0       12.041866   29.273283   10.002172
     59          8           0       13.082565   29.075002    9.421687
     60          6           0       10.842843   30.407150   11.980546
     61          6           0       11.417706   29.491758   13.079995
     62          6           0       12.923174   29.618519   13.347570
     63          7           0       13.339553   31.014469   13.527740
     64          6           0       14.602615   31.419787   13.367435
     65          7           0       15.614113   30.534309   13.485208
     66          7           0       14.847171   32.696055   13.069244
     67          8           0       11.058359   28.353668   10.125759
     68          1           0       11.286118   27.620382    9.521987
     69          1           0       11.755784   32.548184   10.085660
     70          1           0       12.711192   30.928800   11.065138
     71          1           0        9.860144   30.024357   11.690271
     72          1           0       10.705267   31.407828   12.389353
     73          1           0       10.866410   29.680232   14.005394
     74          1           0       11.233297   28.443984   12.822932
     75          1           0       13.163810   29.026935   14.241288
     76          1           0       13.495341   29.194867   12.512259
     77          1           0       12.622156   31.758947   13.592162
     78          1           0       16.554605   30.781354   13.215419
     79          1           0       15.484877   29.656923   13.966008
     80          1           0       14.089741   33.230637   12.600094
     81          1           0       15.787139   33.063451   13.093823
 ---------------------------------------------------------------------

 SCF Done:  E(RB3LYP) =  -2054.06612500     A.U. after    3 cycles

 Alpha  occ. eigenvalues --  -19.29876 -19.24432 -19.23887 -19.23065 -19.22111
 Alpha  occ. eigenvalues --  -19.21744 -19.21432 -19.20983 -14.54472 -14.50462
 Alpha  occ. eigenvalues --  -14.48997 -14.48463 -14.47863 -14.46500 -14.45705
 Alpha  occ. eigenvalues --  -14.45624 -10.45521 -10.42252 -10.39818 -10.39559
 Alpha  occ. eigenvalues --  -10.39315 -10.38621 -10.36368 -10.34916 -10.34892
 Alpha  occ. eigenvalues --  -10.34858 -10.34579 -10.33623 -10.32655 -10.32490
 Alpha  occ. eigenvalues --  -10.30358 -10.30128 -10.30109 -10.30083 -10.29344
 Alpha  occ. eigenvalues --  -10.29305 -10.29223 -10.29029 -10.28911 -10.28636
 Alpha  occ. eigenvalues --  -10.28350 -10.26621  -1.20633  -1.15561  -1.14443
 Alpha  occ. eigenvalues --   -1.14064  -1.13883  -1.13039  -1.12154  -1.11733
 Alpha  occ. eigenvalues --   -1.09825  -1.08575  -1.06221  -1.03518  -1.02642
 Alpha  occ. eigenvalues --   -1.02455  -1.02113  -1.01971  -0.94346  -0.91527
 Alpha  occ. eigenvalues --   -0.91312  -0.90487  -0.87340  -0.86098  -0.85574
 Alpha  occ. eigenvalues --   -0.83937  -0.83048  -0.82201  -0.81019  -0.79883
 Alpha  occ. eigenvalues --   -0.77308  -0.76650  -0.74102  -0.73691  -0.72779
 Alpha  occ. eigenvalues --   -0.72509  -0.71510  -0.71272  -0.70677  -0.69642
 Alpha  occ. eigenvalues --   -0.69337  -0.68540  -0.67896  -0.66869  -0.66142
 Alpha  occ. eigenvalues --   -0.65837  -0.64189  -0.63873  -0.63513  -0.62716
 Alpha  occ. eigenvalues --   -0.62521  -0.61123  -0.60716  -0.59856  -0.59686
 Alpha  occ. eigenvalues --   -0.59180  -0.58872  -0.58561  -0.58216  -0.57895
 Alpha  occ. eigenvalues --   -0.57419  -0.56903  -0.56536  -0.56039  -0.55609
 Alpha  occ. eigenvalues --   -0.55192  -0.54994  -0.54466  -0.54060  -0.53903
 Alpha  occ. eigenvalues --   -0.53774  -0.53425  -0.52866  -0.52746  -0.52356
 Alpha  occ. eigenvalues --   -0.52053  -0.51441  -0.51229  -0.50914  -0.50570
 Alpha  occ. eigenvalues --   -0.50228  -0.50004  -0.49423  -0.49025  -0.48447
 Alpha  occ. eigenvalues --   -0.47845  -0.47745  -0.47371  -0.46980  -0.46740
 Alpha  occ. eigenvalues --   -0.46399  -0.46251  -0.46081  -0.45722  -0.45544
 Alpha  occ. eigenvalues --   -0.45054  -0.44466  -0.43700  -0.43569  -0.42422
 Alpha  occ. eigenvalues --   -0.41786  -0.41029  -0.38789  -0.38376  -0.38234
 Alpha  occ. eigenvalues --   -0.38115  -0.37501  -0.37325  -0.36231  -0.35913
 Alpha  occ. eigenvalues --   -0.35659  -0.35168  -0.34861  -0.34822  -0.34085
 Alpha  occ. eigenvalues --   -0.32999  -0.31034
 Alpha virt. eigenvalues --   -0.12021  -0.10585  -0.10144  -0.09874  -0.09837
 Alpha virt. eigenvalues --   -0.08488  -0.07785  -0.07512  -0.06305  -0.05945
 Alpha virt. eigenvalues --   -0.04558  -0.03579  -0.02638  -0.02204  -0.01784

 Mulliken charges:
               1
     1  N   -0.813653
     2  C   -0.098319
     3  C    0.578901
     4  O   -0.487300
     5  C   -0.337811
     6  C   -0.348849
     7  C    0.614324
     8  O   -0.575956
     9  O   -0.621383
    10  H    0.408748
    11  H    0.209481
    12  H    0.218855
    13  H    0.204877
    14  H    0.167375
    15  H    0.194307
    16  H    0.443645
    17  H    0.405055
    18  N   -0.566177
    19  C   -0.083001
    20  C    0.652736
    21  O   -0.507103
    22  C   -0.359416
    23  C    0.029525
    24  C   -0.030484
    25  C    0.063901
    26  C    0.278124
    27  C   -0.215371
    28  N   -0.691110
    29  C   -0.162965
    30  C   -0.143772
    31  C   -0.152572
    32  H    0.369567
    33  H    0.129527
    34  H    0.168125
    35  H    0.195915
    36  H    0.206237
    37  H    0.354130
    38  H    0.144398
    39  H    0.151304
    40  H    0.142026
    41  H    0.151790
    42  N   -0.625554
    43  C   -0.034761
    44  C    0.563461
    45  O   -0.503384
    46  C    0.099945
    47  C   -0.487303
    48  O   -0.625107
    49  H    0.412358
    50  H    0.349754
    51  H    0.178924
    52  H    0.165188
    53  H    0.170950
    54  H    0.173475
    55  H    0.185053
    56  N   -0.628713
    57  C   -0.039896
    58  C    0.618551
    59  O   -0.462613
    60  C   -0.318661
    61  C   -0.307772
    62  C   -0.167592
    63  N   -0.632083
    64  C    0.778053
    65  N   -0.756267
    66  N   -0.785993
    67  O   -0.570254
    68  H    0.431374
    69  H    0.369893
    70  H    0.184550
    71  H    0.161300
    72  H    0.149698
    73  H    0.176093
    74  H    0.176487
    75  H    0.169616
    76  H    0.181628
    77  H    0.419997
    78  H    0.374501
    79  H    0.378028
    80  H    0.432613
    81  H    0.356834
 Sum of Mulliken charges =   1.00000

 Dipole moment (field-independent basis, Debye):
    X=             56.5472    Y=            147.3313    Z=             65.2872  Tot=            170.7821
 Quadrupole moment (field-independent basis, Debye-Ang):
   XX=            480.0023   YY=           4287.1846   ZZ=            675.0898
   XY=           1742.7955   XZ=            758.7122   YZ=           2013.7857

 Normal termination of Gaussian 16 at Fri May 27 05:10:52 2022.
