 Gaussian 16, Revision C.01,
 Gaussian 16:  ES64L-G16RevC.01  3-Jul-2019

 ----------------------------------------------------------------------
 # B3LYP/6-31G* empiricaldispersion=gd3 guess=read geom=check nosymm in
 tegral(ultrafinegrid)
 ----------------------------------------------------------------------

 ------------------------------------------------------
 Candidate Structure: Conf:962 Charge calc in gas phase
 ------------------------------------------------------
 Structure from the checkpoint file:  "conf-962.chk"
 Charge =  1 Multiplicity = 1

                          Input orientation:
 ---------------------------------------------------------------------
 Center     Atomic      Atomic             Coordinates (Angstroms)
 Number     Number       Type             X           Y           Z
 ---------------------------------------------------------------------
      1          7           0       12.680080   31.484411   11.808015
      2          6           0       12.897227   32.849649   12.395689
      3          6           0       12.950301   32.867393   13.940631
      4          8           0       14.028814   33.086088   14.474173
      5          6           0       11.916696   33.871396   11.796215
      6          6           0       12.208192   34.281712   10.338338
      7          6           0       11.764171   33.301066    9.247261
      8          8           0       11.325261   33.760172    8.184237
      9          8           0       11.860336   32.027408    9.487883
     10          1           0       11.912586   30.977117   12.258887
     11          1           0       13.912437   33.130197   12.107541
     12          1           0       10.884537   33.511878   11.888752
     13          1           0       11.980379   34.766129   12.423886
     14          1           0       13.285728   34.458049   10.212735
     15          1           0       11.719073   35.234507   10.121672
     16          1           0       12.398087   31.638439   10.713480
     17          1           0       13.501777   30.888289   11.931996
     18          7           0       11.791364   32.806986   14.667093
     19          6           0       10.542525   32.097884   14.437465
     20          6           0        9.444364   32.885021   15.183115
     21          8           0        9.739001   33.483171   16.207510
     22          6           0       10.617091   30.656347   15.035274
     23          6           0       11.573849   29.771745   14.302974
     24          6           0       12.931875   29.668237   14.492733
     25          6           0       11.248037   28.927933   13.174379
     26          6           0       12.463665   28.342016   12.722723
     27          6           0       10.048370   28.608495   12.510427
     28          7           0       13.478437   28.840735   13.524987
     29          6           0       12.511081   27.457518   11.639903
     30          6           0       10.091433   27.724309   11.439625
     31          6           0       11.310139   27.157685   11.007276
     32          1           0       11.926401   33.046754   15.646875
     33          1           0       10.336256   32.045323   13.365735
     34          1           0        9.618557   30.207443   15.022910
     35          1           0       10.894773   30.764237   16.089260
     36          1           0       13.564279   30.151298   15.224888
     37          1           0       14.416757   28.467327   13.562136
     38          1           0        9.100624   29.027519   12.837655
     39          1           0       13.446474   27.013705   11.311741
     40          1           0        9.170559   27.448323   10.933708
     41          1           0       11.308582   26.466013   10.170517
     42          7           0        8.160905   32.857364   14.715507
     43          6           0        7.569737   32.177532   13.578619
     44          6           0        6.478281   33.104217   13.012058
     45          8           0        5.847203   33.789686   13.806862
     46          6           0        6.915406   30.834142   14.023893
     47          6           0        5.731945   30.964901   14.972235
     48          8           0        6.552003   30.148643   12.807999
     49          1           0        6.106317   29.317345   13.041006
     50          1           0        7.509701   33.430281   15.246329
     51          1           0        8.335223   31.937444   12.845433
     52          1           0        7.709896   30.260661   14.517120
     53          1           0        4.900425   31.499478   14.507153
     54          1           0        6.022372   31.501953   15.879524
     55          1           0        5.389446   29.968406   15.274691
     56          7           0        6.080890   33.049125   11.696001
     57          6           0        6.723555   32.810594   10.390464
     58          6           0        6.040377   31.668014    9.622763
     59          8           0        6.016883   31.676306    8.406194
     60          6           0        8.260260   32.602784   10.358280
     61          6           0        8.793529   31.158972   10.476168
     62          6           0        8.860397   30.362462    9.154348
     63          7           0        9.621073   31.081164    8.140506
     64          6           0        9.225194   31.504588    6.940264
     65          7           0        8.022628   31.171732    6.422057
     66          7           0       10.109327   32.214067    6.213775
     67          8           0        5.560548   30.649800   10.325136
     68          1           0        5.733675   30.762727   11.291519
     69          1           0        5.249690   33.627524   11.601204
     70          1           0        6.519546   33.705986    9.796942
     71          1           0        8.693475   33.242828   11.134462
     72          1           0        8.618442   33.022116    9.412996
     73          1           0        9.815723   31.208845   10.864897
     74          1           0        8.212525   30.563469   11.183388
     75          1           0        9.369706   29.414685    9.358942
     76          1           0        7.869170   30.110792    8.782420
     77          1           0       10.567090   31.357498    8.446222
     78          1           0        7.735575   31.657481    5.583032
     79          1           0        7.249340   30.988647    7.057690
     80          1           0       10.796931   32.752103    6.767255
     81          1           0        9.789195   32.650983    5.360764
 ---------------------------------------------------------------------

 SCF Done:  E(RB3LYP) =  -2054.06909769     A.U. after    1 cycles

 Alpha  occ. eigenvalues --  -19.29818 -19.29814 -19.24699 -19.23565 -19.23141
 Alpha  occ. eigenvalues --  -19.22149 -19.22031 -19.21055 -14.52777 -14.49693
 Alpha  occ. eigenvalues --  -14.48289 -14.47586 -14.47508 -14.47032 -14.46427
 Alpha  occ. eigenvalues --  -14.46337 -10.44096 -10.43225 -10.41282 -10.40084
 Alpha  occ. eigenvalues --  -10.39927 -10.39536 -10.37288 -10.36557 -10.36437
 Alpha  occ. eigenvalues --  -10.36430 -10.36010 -10.33998 -10.33489 -10.33380
 Alpha  occ. eigenvalues --  -10.31975 -10.31568 -10.31194 -10.30807 -10.30134
 Alpha  occ. eigenvalues --  -10.30054 -10.30023 -10.29983 -10.29516 -10.29428
 Alpha  occ. eigenvalues --  -10.29292 -10.28653  -1.21214  -1.16679  -1.15789
 Alpha  occ. eigenvalues --   -1.15370  -1.14695  -1.14005  -1.12838  -1.12406
 Alpha  occ. eigenvalues --   -1.09598  -1.08667  -1.05936  -1.04210  -1.03673
 Alpha  occ. eigenvalues --   -1.03192  -1.02339  -1.00342  -0.95206  -0.92151
 Alpha  occ. eigenvalues --   -0.91969  -0.91034  -0.89762  -0.87156  -0.86504
 Alpha  occ. eigenvalues --   -0.84795  -0.83436  -0.83272  -0.82717  -0.80108
 Alpha  occ. eigenvalues --   -0.78332  -0.75494  -0.74620  -0.74493  -0.73378
 Alpha  occ. eigenvalues --   -0.72768  -0.72567  -0.71816  -0.70459  -0.70346
 Alpha  occ. eigenvalues --   -0.69349  -0.69042  -0.68110  -0.67463  -0.66492
 Alpha  occ. eigenvalues --   -0.66173  -0.65946  -0.65097  -0.64026  -0.63751
 Alpha  occ. eigenvalues --   -0.62387  -0.61976  -0.61196  -0.60528  -0.60402
 Alpha  occ. eigenvalues --   -0.59867  -0.59691  -0.59384  -0.59013  -0.58678
 Alpha  occ. eigenvalues --   -0.58087  -0.57575  -0.57346  -0.57023  -0.56597
 Alpha  occ. eigenvalues --   -0.55748  -0.55509  -0.55162  -0.54834  -0.54327
 Alpha  occ. eigenvalues --   -0.54136  -0.54004  -0.53465  -0.53339  -0.53150
 Alpha  occ. eigenvalues --   -0.52864  -0.52190  -0.51981  -0.51548  -0.51374
 Alpha  occ. eigenvalues --   -0.51005  -0.50713  -0.50040  -0.49906  -0.49486
 Alpha  occ. eigenvalues --   -0.49120  -0.48820  -0.48769  -0.48607  -0.48097
 Alpha  occ. eigenvalues --   -0.47503  -0.47412  -0.46923  -0.46545  -0.46403
 Alpha  occ. eigenvalues --   -0.45981  -0.45791  -0.45294  -0.44615  -0.44506
 Alpha  occ. eigenvalues --   -0.42284  -0.41747  -0.39955  -0.39260  -0.38936
 Alpha  occ. eigenvalues --   -0.38158  -0.38011  -0.37659  -0.36986  -0.36916
 Alpha  occ. eigenvalues --   -0.36482  -0.36090  -0.35775  -0.35140  -0.34547
 Alpha  occ. eigenvalues --   -0.33852  -0.31847
 Alpha virt. eigenvalues --   -0.12673  -0.11363  -0.10921  -0.10225  -0.09540
 Alpha virt. eigenvalues --   -0.08744  -0.08606  -0.07338  -0.06844  -0.06251
 Alpha virt. eigenvalues --   -0.05269  -0.04415  -0.03846  -0.03103  -0.02228

 Mulliken charges:
               1
     1  N   -0.823992
     2  C   -0.089588
     3  C    0.579708
     4  O   -0.477648
     5  C   -0.312310
     6  C   -0.371973
     7  C    0.633695
     8  O   -0.541571
     9  O   -0.661053
    10  H    0.407804
    11  H    0.212419
    12  H    0.152868
    13  H    0.201617
    14  H    0.186556
    15  H    0.192608
    16  H    0.465866
    17  H    0.392815
    18  N   -0.573411
    19  C   -0.088229
    20  C    0.629533
    21  O   -0.489320
    22  C   -0.365619
    23  C    0.042183
    24  C   -0.009360
    25  C    0.030356
    26  C    0.292015
    27  C   -0.216861
    28  N   -0.687466
    29  C   -0.161584
    30  C   -0.150671
    31  C   -0.149616
    32  H    0.366305
    33  H    0.128529
    34  H    0.168275
    35  H    0.191819
    36  H    0.200619
    37  H    0.355013
    38  H    0.136491
    39  H    0.156332
    40  H    0.143775
    41  H    0.157797
    42  N   -0.617589
    43  C   -0.072224
    44  C    0.618323
    45  O   -0.489539
    46  C    0.125948
    47  C   -0.481111
    48  O   -0.652562
    49  H    0.428110
    50  H    0.373337
    51  H    0.165098
    52  H    0.156268
    53  H    0.192201
    54  H    0.186570
    55  H    0.162064
    56  N   -0.645424
    57  C   -0.066194
    58  C    0.624585
    59  O   -0.496907
    60  C   -0.324740
    61  C   -0.323002
    62  C   -0.177362
    63  N   -0.613962
    64  C    0.739234
    65  N   -0.756334
    66  N   -0.761917
    67  O   -0.578205
    68  H    0.461638
    69  H    0.358593
    70  H    0.203711
    71  H    0.168904
    72  H    0.197789
    73  H    0.142539
    74  H    0.186960
    75  H    0.183963
    76  H    0.186738
    77  H    0.415170
    78  H    0.357848
    79  H    0.409373
    80  H    0.407145
    81  H    0.350235
 Sum of Mulliken charges =   1.00000

 Dipole moment (field-independent basis, Debye):
    X=             46.9541    Y=            146.3117    Z=             51.6709  Tot=            162.1162
 Quadrupole moment (field-independent basis, Debye-Ang):
   XX=            259.3299   YY=           4224.1097   ZZ=            347.2940
   XY=           1416.1688   XZ=            510.0622   YZ=           1544.5597

 Normal termination of Gaussian 16 at Fri May 27 05:10:00 2022.
