 Gaussian 16, Revision C.01,
 Gaussian 16:  ES64L-G16RevC.01  3-Jul-2019

 ----------------------------------------------------------------------
 # B3LYP/6-31G* empiricaldispersion=gd3 guess=read geom=check nosymm in
 tegral(ultrafinegrid)
 ----------------------------------------------------------------------

 ------------------------------------------------------
 Candidate Structure: Conf:883 Charge calc in gas phase
 ------------------------------------------------------
 Structure from the checkpoint file:  "conf-883.chk"
 Charge =  1 Multiplicity = 1

                          Input orientation:
 ---------------------------------------------------------------------
 Center     Atomic      Atomic             Coordinates (Angstroms)
 Number     Number       Type             X           Y           Z
 ---------------------------------------------------------------------
      1          7           0       10.250017   28.775295   12.457844
      2          6           0       11.697526   28.454572   12.168118
      3          6           0       12.714282   28.868427   13.257669
      4          8           0       13.357827   27.984833   13.805726
      5          6           0       12.118467   28.974573   10.782880
      6          6           0       11.508998   28.215124    9.590115
      7          6           0       10.086908   28.616644    9.189190
      8          8           0        9.780365   28.558098    7.992418
      9          8           0        9.270592   29.002944   10.126014
     10          1           0        9.711489   28.821510   11.453393
     11          1           0       11.756938   27.364808   12.166017
     12          1           0       11.915741   30.049200   10.697564
     13          1           0       13.207360   28.869559   10.738197
     14          1           0       11.512354   27.134478    9.791312
     15          1           0       12.134626   28.356210    8.705414
     16          1           0        9.839648   28.086627   13.092666
     17          1           0       10.128105   29.672381   12.936431
     18          7           0       13.009821   30.191896   13.440003
     19          6           0       12.168790   31.367508   13.326276
     20          6           0       13.062716   32.544223   12.880414
     21          8           0       14.263453   32.514401   13.095956
     22          6           0       11.489301   31.686417   14.695584
     23          6           0       10.497142   30.640342   15.100018
     24          6           0       10.757560   29.384115   15.600501
     25          6           0        9.063366   30.729009   14.931891
     26          6           0        8.515434   29.479061   15.332822
     27          6           0        8.191774   31.756805   14.523499
     28          7           0        9.577233   28.667433   15.701059
     29          6           0        7.139318   29.226218   15.320733
     30          6           0        6.824598   31.512821   14.523830
     31          6           0        6.304224   30.259095   14.910724
     32          1           0       13.856132   30.346000   13.982158
     33          1           0       11.404801   31.188343   12.565982
     34          1           0       10.990453   32.659023   14.639767
     35          1           0       12.292527   31.792597   15.433387
     36          1           0       11.700263   28.924585   15.862920
     37          1           0        9.485200   27.797179   16.206369
     38          1           0        8.574131   32.733410   14.238017
     39          1           0        6.737063   28.268091   15.637023
     40          1           0        6.138701   32.301728   14.229353
     41          1           0        5.229870   30.102775   14.902763
     42          7           0       12.459315   33.611021   12.271061
     43          6           0       11.053951   33.841561   11.995675
     44          6           0       10.920208   34.283630   10.526652
     45          8           0       11.836925   34.939854   10.046717
     46          6           0       10.500744   34.939578   12.948174
     47          6           0       11.011247   36.349030   12.683917
     48          8           0        9.058976   34.868485   12.841956
     49          1           0        8.672691   35.506117   13.465994
     50          1           0       13.099979   34.296752   11.882903
     51          1           0       10.497046   32.932353   12.196632
     52          1           0       10.784270   34.632273   13.962414
     53          1           0       10.720477   36.701429   11.691042
     54          1           0       12.102180   36.384748   12.753882
     55          1           0       10.609918   37.037557   13.436198
     56          7           0        9.794282   34.049659    9.775381
     57          6           0        8.548467   33.266106    9.839221
     58          6           0        7.327154   34.206925    9.866564
     59          8           0        6.410575   34.071840    9.072937
     60          6           0        8.455946   32.191395   10.935215
     61          6           0        7.085135   31.501741   11.099007
     62          6           0        6.348012   31.011600    9.839709
     63          7           0        7.245374   30.485289    8.814483
     64          6           0        7.225054   30.806787    7.517906
     65          7           0        6.552995   31.892166    7.083710
     66          7           0        7.864701   30.013858    6.645738
     67          8           0        7.303190   35.151453   10.794588
     68          1           0        8.095380   35.100848   11.386345
     69          1           0        9.919422   34.502227    8.873640
     70          1           0        8.481677   32.754553    8.878307
     71          1           0        8.672497   32.631980   11.907338
     72          1           0        9.217379   31.434555   10.715234
     73          1           0        7.250667   30.659193   11.777065
     74          1           0        6.401139   32.173671   11.629974
     75          1           0        5.646200   30.219807   10.128370
     76          1           0        5.753235   31.817555    9.418334
     77          1           0        7.907026   29.763055    9.132507
     78          1           0        6.473907   32.061446    6.091870
     79          1           0        6.360259   32.675999    7.711038
     80          1           0        8.486158   29.288806    7.041141
     81          1           0        8.127586   30.392642    5.746361
 ---------------------------------------------------------------------

 SCF Done:  E(RB3LYP) =  -2054.06928601     A.U. after    1 cycles

 Alpha  occ. eigenvalues --  -19.30307 -19.29422 -19.24994 -19.23142 -19.22999
 Alpha  occ. eigenvalues --  -19.22240 -19.22064 -19.20973 -14.53277 -14.49528
 Alpha  occ. eigenvalues --  -14.48363 -14.47839 -14.47572 -14.46954 -14.46756
 Alpha  occ. eigenvalues --  -14.46595 -10.44334 -10.43124 -10.41024 -10.40232
 Alpha  occ. eigenvalues --  -10.39876 -10.39475 -10.37399 -10.36589 -10.36390
 Alpha  occ. eigenvalues --  -10.36254 -10.36040 -10.33379 -10.33253 -10.33205
 Alpha  occ. eigenvalues --  -10.31377 -10.31363 -10.31206 -10.30325 -10.29984
 Alpha  occ. eigenvalues --  -10.29939 -10.29796 -10.29627 -10.29266 -10.29165
 Alpha  occ. eigenvalues --  -10.28968 -10.28801  -1.21011  -1.16869  -1.15496
 Alpha  occ. eigenvalues --   -1.15221  -1.14721  -1.14028  -1.12838  -1.12470
 Alpha  occ. eigenvalues --   -1.09461  -1.08783  -1.05947  -1.04110  -1.03664
 Alpha  occ. eigenvalues --   -1.03460  -1.02210  -1.00592  -0.94953  -0.92106
 Alpha  occ. eigenvalues --   -0.91792  -0.90971  -0.89849  -0.87121  -0.86005
 Alpha  occ. eigenvalues --   -0.84548  -0.83295  -0.83248  -0.82694  -0.80015
 Alpha  occ. eigenvalues --   -0.78375  -0.75600  -0.74573  -0.74278  -0.73169
 Alpha  occ. eigenvalues --   -0.72822  -0.72454  -0.71847  -0.70274  -0.70216
 Alpha  occ. eigenvalues --   -0.69740  -0.69206  -0.68204  -0.67304  -0.66679
 Alpha  occ. eigenvalues --   -0.66128  -0.65757  -0.64832  -0.64569  -0.63724
 Alpha  occ. eigenvalues --   -0.62920  -0.62289  -0.61363  -0.61227  -0.60358
 Alpha  occ. eigenvalues --   -0.59746  -0.59612  -0.59206  -0.58810  -0.58235
 Alpha  occ. eigenvalues --   -0.57732  -0.57436  -0.57156  -0.56980  -0.56696
 Alpha  occ. eigenvalues --   -0.55811  -0.55481  -0.55045  -0.54669  -0.54181
 Alpha  occ. eigenvalues --   -0.54065  -0.53870  -0.53678  -0.53317  -0.52817
 Alpha  occ. eigenvalues --   -0.52655  -0.52403  -0.52034  -0.51638  -0.51207
 Alpha  occ. eigenvalues --   -0.51142  -0.50934  -0.50003  -0.49777  -0.49307
 Alpha  occ. eigenvalues --   -0.48971  -0.48773  -0.48571  -0.48405  -0.47957
 Alpha  occ. eigenvalues --   -0.47403  -0.47027  -0.46739  -0.46460  -0.46188
 Alpha  occ. eigenvalues --   -0.45608  -0.45486  -0.45162  -0.44371  -0.44110
 Alpha  occ. eigenvalues --   -0.42108  -0.41994  -0.40026  -0.39158  -0.39070
 Alpha  occ. eigenvalues --   -0.38218  -0.37791  -0.37436  -0.37015  -0.36758
 Alpha  occ. eigenvalues --   -0.36334  -0.36117  -0.35782  -0.35172  -0.34577
 Alpha  occ. eigenvalues --   -0.33592  -0.31652
 Alpha virt. eigenvalues --   -0.12562  -0.11411  -0.10291  -0.09721  -0.09224
 Alpha virt. eigenvalues --   -0.08928  -0.08608  -0.07022  -0.06531  -0.06237
 Alpha virt. eigenvalues --   -0.05195  -0.04153  -0.04007  -0.02603  -0.01799

 Mulliken charges:
               1
     1  N   -0.822101
     2  C   -0.085458
     3  C    0.578533
     4  O   -0.481612
     5  C   -0.306942
     6  C   -0.375967
     7  C    0.634888
     8  O   -0.541440
     9  O   -0.661720
    10  H    0.462404
    11  H    0.210486
    12  H    0.160758
    13  H    0.203739
    14  H    0.183132
    15  H    0.196811
    16  H    0.392207
    17  H    0.400224
    18  N   -0.565303
    19  C   -0.098272
    20  C    0.626617
    21  O   -0.482077
    22  C   -0.360907
    23  C    0.028806
    24  C   -0.013238
    25  C    0.048936
    26  C    0.287557
    27  C   -0.224458
    28  N   -0.688168
    29  C   -0.163322
    30  C   -0.147480
    31  C   -0.151404
    32  H    0.364274
    33  H    0.133977
    34  H    0.163924
    35  H    0.190056
    36  H    0.204234
    37  H    0.354173
    38  H    0.141607
    39  H    0.154230
    40  H    0.143376
    41  H    0.155787
    42  N   -0.608938
    43  C   -0.080607
    44  C    0.621536
    45  O   -0.494603
    46  C    0.119853
    47  C   -0.478571
    48  O   -0.651700
    49  H    0.431091
    50  H    0.369815
    51  H    0.158598
    52  H    0.166112
    53  H    0.190237
    54  H    0.186420
    55  H    0.164845
    56  N   -0.639067
    57  C   -0.062443
    58  C    0.624562
    59  O   -0.477464
    60  C   -0.334542
    61  C   -0.292126
    62  C   -0.163986
    63  N   -0.628713
    64  C    0.750065
    65  N   -0.788310
    66  N   -0.773414
    67  O   -0.575781
    68  H    0.457060
    69  H    0.354356
    70  H    0.175850
    71  H    0.184062
    72  H    0.164369
    73  H    0.167790
    74  H    0.169483
    75  H    0.184205
    76  H    0.195268
    77  H    0.413263
    78  H    0.362417
    79  H    0.415368
    80  H    0.421922
    81  H    0.350851
 Sum of Mulliken charges =   1.00000

 Dipole moment (field-independent basis, Debye):
    X=             40.7902    Y=            149.7721    Z=             56.3310  Tot=            165.1324
 Quadrupole moment (field-independent basis, Debye-Ang):
   XX=             90.9365   YY=           4462.6748   ZZ=            483.6536
   XY=           1276.1850   XZ=            487.7170   YZ=           1749.6446

 Normal termination of Gaussian 16 at Fri May 27 05:09:58 2022.
