 Gaussian 16, Revision C.01,
 Gaussian 16:  ES64L-G16RevC.01  3-Jul-2019

 ----------------------------------------------------------------------
 # B3LYP/6-31G* empiricaldispersion=gd3 guess=read geom=check nosymm in
 tegral(ultrafinegrid)
 ----------------------------------------------------------------------

 ------------------------------------------------------
 Candidate Structure: Conf:234 Charge calc in gas phase
 ------------------------------------------------------
 Structure from the checkpoint file:  "conf-234.chk"
 Charge =  1 Multiplicity = 1

                          Input orientation:
 ---------------------------------------------------------------------
 Center     Atomic      Atomic             Coordinates (Angstroms)
 Number     Number       Type             X           Y           Z
 ---------------------------------------------------------------------
      1          7           0        9.099422   31.721472    9.196159
      2          6           0       10.080464   32.622663    8.483996
      3          6           0       11.383516   31.950779    7.991365
      4          8           0       11.601138   31.937045    6.788157
      5          6           0       10.379190   33.885845    9.309475
      6          6           0        9.218654   34.893860    9.399064
      7          6           0        8.143299   34.594581   10.447171
      8          8           0        7.588160   35.550654   11.001633
      9          8           0        7.867457   33.349584   10.706139
     10          1           0        9.557024   31.028416    9.795088
     11          1           0        9.581878   32.918497    7.559319
     12          1           0       10.731004   33.615638   10.312690
     13          1           0       11.224662   34.376633    8.816511
     14          1           0        8.723745   34.984892    8.421781
     15          1           0        9.611021   35.887425    9.628987
     16          1           0        8.444846   32.390242    9.848024
     17          1           0        8.556081   31.167883    8.529793
     18          7           0       12.335982   31.574193    8.898653
     19          6           0       12.198804   31.052758   10.244656
     20          6           0       13.435179   31.502578   11.051839
     21          8           0       14.471030   31.788037   10.473354
     22          6           0       12.101681   29.494452   10.218379
     23          6           0       10.838754   29.010149    9.575981
     24          6           0       10.536777   28.982475    8.232722
     25          6           0        9.649075   28.578020   10.275881
     26          6           0        8.653308   28.321909    9.292957
     27          6           0        9.346658   28.343376   11.630995
     28          7           0        9.213877   28.612684    8.058803
     29          6           0        7.374976   27.859757    9.624690
     30          6           0        8.083020   27.871556   11.961578
     31          6           0        7.105237   27.639454   10.970442
     32          1           0       13.242270   31.385250    8.478090
     33          1           0       11.299404   31.472961   10.701176
     34          1           0       12.163038   29.105943   11.239728
     35          1           0       12.991507   29.128011    9.694235
     36          1           0       11.151379   29.232642    7.379255
     37          1           0        8.813297   28.346033    7.170211
     38          1           0       10.092611   28.501098   12.405619
     39          1           0        6.628546   27.662368    8.860662
     40          1           0        7.841139   27.668170   13.000650
     41          1           0        6.128199   27.267082   11.262785
     42          7           0       13.329707   31.540270   12.415990
     43          6           0       12.210540   31.177193   13.264416
     44          6           0       11.990118   32.315526   14.277895
     45          8           0       12.977921   32.930304   14.662361
     46          6           0       12.515337   29.842038   14.001418
     47          6           0       13.592759   29.920460   15.073773
     48          8           0       11.252656   29.393937   14.548922
     49          1           0       11.390911   28.531533   14.975936
     50          1           0       14.120979   31.963208   12.891763
     51          1           0       11.333999   31.009787   12.647214
     52          1           0       12.823249   29.130227   13.225490
     53          1           0       13.771938   28.924675   15.494962
     54          1           0       13.306979   30.599874   15.880719
     55          1           0       14.536881   30.272388   14.648213
     56          7           0       10.762310   32.607715   14.819655
     57          6           0        9.343648   32.258600   14.631800
     58          6           0        8.804637   31.524147   15.875983
     59          8           0        7.793155   31.904344   16.442175
     60          6           0        8.973157   31.518579   13.335665
     61          6           0        7.519382   31.010906   13.233122
     62          6           0        6.374405   31.962386   13.624210
     63          7           0        6.627139   33.352087   13.252389
     64          6           0        6.479643   34.413798   14.049847
     65          7           0        6.366886   34.266660   15.385484
     66          7           0        6.418022   35.633763   13.496308
     67          8           0        9.469327   30.457164   16.292649
     68          1           0       10.237743   30.253172   15.702595
     69          1           0       10.890828   33.343027   15.509865
     70          1           0        8.813260   33.211497   14.622601
     71          1           0        9.594712   30.631409   13.222871
     72          1           0        9.178235   32.199168   12.501516
     73          1           0        7.386277   30.684296   12.197423
     74          1           0        7.406334   30.106094   13.841240
     75          1           0        5.455035   31.630134   13.127056
     76          1           0        6.190030   31.903624   14.693526
     77          1           0        6.887673   33.507733   12.268271
     78          1           0        6.162824   35.073209   15.956881
     79          1           0        6.741667   33.440146   15.856091
     80          1           0        6.661579   35.705828   12.494382
     81          1           0        6.624935   36.439333   14.070513
 ---------------------------------------------------------------------

 SCF Done:  E(RB3LYP) =  -2054.06929128     A.U. after    3 cycles

 Alpha  occ. eigenvalues --  -19.30308 -19.29426 -19.24996 -19.23142 -19.22995
 Alpha  occ. eigenvalues --  -19.22242 -19.22066 -19.20974 -14.53283 -14.49532
 Alpha  occ. eigenvalues --  -14.48373 -14.47842 -14.47575 -14.46959 -14.46754
 Alpha  occ. eigenvalues --  -14.46599 -10.44336 -10.43128 -10.41027 -10.40235
 Alpha  occ. eigenvalues --  -10.39879 -10.39476 -10.37396 -10.36591 -10.36394
 Alpha  occ. eigenvalues --  -10.36257 -10.36046 -10.33381 -10.33258 -10.33207
 Alpha  occ. eigenvalues --  -10.31380 -10.31369 -10.31209 -10.30328 -10.29988
 Alpha  occ. eigenvalues --  -10.29943 -10.29800 -10.29631 -10.29267 -10.29169
 Alpha  occ. eigenvalues --  -10.28972 -10.28792  -1.21016  -1.16872  -1.15496
 Alpha  occ. eigenvalues --   -1.15221  -1.14724  -1.14031  -1.12841  -1.12473
 Alpha  occ. eigenvalues --   -1.09466  -1.08789  -1.05949  -1.04116  -1.03666
 Alpha  occ. eigenvalues --   -1.03463  -1.02212  -1.00593  -0.94957  -0.92110
 Alpha  occ. eigenvalues --   -0.91795  -0.90975  -0.89847  -0.87124  -0.86009
 Alpha  occ. eigenvalues --   -0.84552  -0.83295  -0.83251  -0.82696  -0.80016
 Alpha  occ. eigenvalues --   -0.78378  -0.75602  -0.74577  -0.74281  -0.73173
 Alpha  occ. eigenvalues --   -0.72830  -0.72458  -0.71850  -0.70278  -0.70221
 Alpha  occ. eigenvalues --   -0.69742  -0.69210  -0.68211  -0.67308  -0.66681
 Alpha  occ. eigenvalues --   -0.66132  -0.65765  -0.64835  -0.64567  -0.63724
 Alpha  occ. eigenvalues --   -0.62923  -0.62293  -0.61365  -0.61228  -0.60362
 Alpha  occ. eigenvalues --   -0.59748  -0.59613  -0.59208  -0.58812  -0.58239
 Alpha  occ. eigenvalues --   -0.57735  -0.57440  -0.57156  -0.56984  -0.56698
 Alpha  occ. eigenvalues --   -0.55812  -0.55484  -0.55047  -0.54674  -0.54184
 Alpha  occ. eigenvalues --   -0.54068  -0.53873  -0.53681  -0.53318  -0.52820
 Alpha  occ. eigenvalues --   -0.52657  -0.52404  -0.52033  -0.51642  -0.51205
 Alpha  occ. eigenvalues --   -0.51143  -0.50935  -0.50005  -0.49776  -0.49312
 Alpha  occ. eigenvalues --   -0.48976  -0.48775  -0.48574  -0.48408  -0.47954
 Alpha  occ. eigenvalues --   -0.47405  -0.47030  -0.46741  -0.46466  -0.46192
 Alpha  occ. eigenvalues --   -0.45609  -0.45489  -0.45164  -0.44374  -0.44114
 Alpha  occ. eigenvalues --   -0.42110  -0.41992  -0.40037  -0.39160  -0.39073
 Alpha  occ. eigenvalues --   -0.38219  -0.37793  -0.37435  -0.37014  -0.36760
 Alpha  occ. eigenvalues --   -0.36334  -0.36120  -0.35781  -0.35174  -0.34578
 Alpha  occ. eigenvalues --   -0.33597  -0.31657
 Alpha virt. eigenvalues --   -0.12566  -0.11425  -0.10292  -0.09718  -0.09225
 Alpha virt. eigenvalues --   -0.08929  -0.08612  -0.07025  -0.06528  -0.06228
 Alpha virt. eigenvalues --   -0.05200  -0.04153  -0.04009  -0.02610  -0.01800

 Mulliken charges:
               1
     1  N   -0.821943
     2  C   -0.085527
     3  C    0.578516
     4  O   -0.481575
     5  C   -0.306864
     6  C   -0.375971
     7  C    0.634822
     8  O   -0.541406
     9  O   -0.661625
    10  H    0.400130
    11  H    0.210487
    12  H    0.160745
    13  H    0.203759
    14  H    0.183108
    15  H    0.196816
    16  H    0.462333
    17  H    0.392300
    18  N   -0.565278
    19  C   -0.098310
    20  C    0.626586
    21  O   -0.482036
    22  C   -0.361009
    23  C    0.029023
    24  C   -0.013450
    25  C    0.049143
    26  C    0.287374
    27  C   -0.224455
    28  N   -0.688249
    29  C   -0.163338
    30  C   -0.147502
    31  C   -0.151407
    32  H    0.364282
    33  H    0.133962
    34  H    0.163944
    35  H    0.190080
    36  H    0.204230
    37  H    0.354198
    38  H    0.141666
    39  H    0.154244
    40  H    0.143379
    41  H    0.155801
    42  N   -0.609122
    43  C   -0.080097
    44  C    0.621423
    45  O   -0.494762
    46  C    0.119790
    47  C   -0.478514
    48  O   -0.651878
    49  H    0.431127
    50  H    0.369904
    51  H    0.158487
    52  H    0.166047
    53  H    0.164735
    54  H    0.190406
    55  H    0.186389
    56  N   -0.638891
    57  C   -0.062595
    58  C    0.624481
    59  O   -0.477377
    60  C   -0.334415
    61  C   -0.292145
    62  C   -0.163982
    63  N   -0.628740
    64  C    0.750027
    65  N   -0.788288
    66  N   -0.773411
    67  O   -0.575739
    68  H    0.457043
    69  H    0.354415
    70  H    0.175853
    71  H    0.183923
    72  H    0.164342
    73  H    0.167831
    74  H    0.169474
    75  H    0.184231
    76  H    0.195262
    77  H    0.413250
    78  H    0.362425
    79  H    0.415330
    80  H    0.421949
    81  H    0.350831
 Sum of Mulliken charges =   1.00000

 Dipole moment (field-independent basis, Debye):
    X=             41.6687    Y=            149.2945    Z=             58.4316  Tot=            165.6484
 Quadrupole moment (field-independent basis, Debye-Ang):
   XX=            127.6259   YY=           4439.3257   ZZ=            505.7469
   XY=           1270.7663   XZ=            517.9024   YZ=           1842.2432

 Normal termination of Gaussian 16 at Fri May 27 05:10:55 2022.
