 Gaussian 16, Revision C.01,
 Gaussian 16:  ES64L-G16RevC.01  3-Jul-2019

 ----------------------------------------------------------------------
 # B3LYP/6-31G* empiricaldispersion=gd3 guess=read geom=check nosymm in
 tegral(ultrafinegrid)
 ----------------------------------------------------------------------

 ------------------------------------------------------
 Candidate Structure: Conf:472 Charge calc in gas phase
 ------------------------------------------------------
 Structure from the checkpoint file:  "conf-472.chk"
 Charge =  1 Multiplicity = 1

                          Input orientation:
 ---------------------------------------------------------------------
 Center     Atomic      Atomic             Coordinates (Angstroms)
 Number     Number       Type             X           Y           Z
 ---------------------------------------------------------------------
      1          7           0       11.798175   32.257636    9.541246
      2          6           0       12.959867   32.743855   10.385705
      3          6           0       13.963354   31.597264   10.628803
      4          8           0       15.105649   31.724562   10.229510
      5          6           0       12.489215   33.476150   11.652563
      6          6           0       11.789788   34.833883   11.445647
      7          6           0       10.328589   34.781170   10.993979
      8          8           0        9.498606   35.503952   11.572721
      9          8           0       10.009148   33.991256   10.012607
     10          1           0       12.089168   32.143262    8.567469
     11          1           0       13.503077   33.450656    9.755377
     12          1           0       11.847923   32.843487   12.263073
     13          1           0       13.388997   33.642069   12.254539
     14          1           0       12.343330   35.439031   10.713950
     15          1           0       11.807105   35.376501   12.392799
     16          1           0       11.451839   31.342191    9.853280
     17          1           0       10.973174   33.031265    9.635807
     18          7           0       13.508761   30.418406   11.188654
     19          6           0       12.434401   30.265414   12.167526
     20          6           0       12.936648   30.703380   13.567288
     21          8           0       14.131366   30.845219   13.770382
     22          6           0       11.914114   28.807185   12.139022
     23          6           0       11.013862   28.539490   10.965103
     24          6           0       11.344673   28.569143    9.627840
     25          6           0        9.609579   28.209080   11.030506
     26          6           0        9.149973   28.052374    9.694024
     27          6           0        8.695711   28.041575   12.089653
     28          7           0       10.222858   28.298389    8.861048
     29          6           0        7.822631   27.723049    9.390460
     30          6           0        7.373978   27.724880   11.791356
     31          6           0        6.943751   27.560404   10.453828
     32          1           0       14.309144   29.826192   11.402061
     33          1           0       11.601823   30.906830   11.877303
     34          1           0       11.372611   28.600892   13.066907
     35          1           0       12.780547   28.134168   12.148388
     36          1           0       12.308465   28.724136    9.163158
     37          1           0       10.236984   28.111351    7.869242
     38          1           0        9.001115   28.164085   13.124483
     39          1           0        7.494788   27.592238    8.363007
     40          1           0        6.664343   27.574956   12.600371
     41          1           0        5.910073   27.292690   10.256530
     42          7           0       11.994248   30.887212   14.545210
     43          6           0       10.563056   31.066481   14.349536
     44          6           0       10.260047   32.577115   14.220499
     45          8           0       11.045475   33.379512   14.715274
     46          6           0        9.768143   30.382278   15.497099
     47          6           0        9.460082   31.291008   16.681716
     48          8           0        8.580535   29.877305   14.876190
     49          1           0        7.838733   29.930324   15.500074
     50          1           0       12.377702   31.362287   15.357273
     51          1           0       10.268776   30.533856   13.449961
     52          1           0       10.384680   29.534210   15.824961
     53          1           0        9.008585   30.711849   17.494571
     54          1           0        8.763879   32.082715   16.386654
     55          1           0       10.372057   31.758404   17.066386
     56          7           0        9.150381   33.022447   13.558503
     57          6           0        8.097364   32.352322   12.797236
     58          6           0        7.041642   31.683583   13.707646
     59          8           0        6.664765   32.208698   14.723822
     60          6           0        8.640046   31.547754   11.597949
     61          6           0        7.673763   31.259756   10.423329
     62          6           0        6.602626   32.316130   10.139415
     63          7           0        7.178785   33.655204    9.975680
     64          6           0        6.468570   34.782926   10.086166
     65          7           0        5.123566   34.743377    9.980329
     66          7           0        7.100899   35.931216   10.323683
     67          8           0        6.422844   30.576424   13.228021
     68          1           0        7.019351   30.040777   12.673969
     69          1           0        9.108764   34.036742   13.554942
     70          1           0        7.535847   33.193844   12.380445
     71          1           0        9.053391   30.592633   11.922425
     72          1           0        9.469298   32.143231   11.218312
     73          1           0        8.280993   31.107599    9.523043
     74          1           0        7.144017   30.314841   10.571855
     75          1           0        6.056630   32.020343    9.233204
     76          1           0        5.880183   32.337331   10.964973
     77          1           0        8.206261   33.761644    9.925025
     78          1           0        4.564524   35.558912   10.182848
     79          1           0        4.658108   33.963306    9.541479
     80          1           0        8.048484   35.890483   10.755281
     81          1           0        6.609072   36.811742   10.277184
 ---------------------------------------------------------------------

 SCF Done:  E(RB3LYP) =  -2054.05728100     A.U. after    2 cycles

 Alpha  occ. eigenvalues --  -19.28088 -19.25193 -19.24502 -19.22737 -19.22496
 Alpha  occ. eigenvalues --  -19.22473 -19.21190 -19.21160 -14.54566 -14.50873
 Alpha  occ. eigenvalues --  -14.49058 -14.48818 -14.48178 -14.46710 -14.46073
 Alpha  occ. eigenvalues --  -14.45439 -10.46021 -10.41316 -10.40791 -10.40286
 Alpha  occ. eigenvalues --  -10.38772 -10.38551 -10.37060 -10.35463 -10.35106
 Alpha  occ. eigenvalues --  -10.35101 -10.34200 -10.33747 -10.32782 -10.32579
 Alpha  occ. eigenvalues --  -10.31281 -10.31210 -10.30722 -10.30578 -10.29664
 Alpha  occ. eigenvalues --  -10.29494 -10.29321 -10.29082 -10.28848 -10.28775
 Alpha  occ. eigenvalues --  -10.28411 -10.26498  -1.18861  -1.16631  -1.15032
 Alpha  occ. eigenvalues --   -1.14554  -1.13805  -1.12984  -1.12283  -1.10844
 Alpha  occ. eigenvalues --   -1.10001  -1.08598  -1.07204  -1.04028  -1.03240
 Alpha  occ. eigenvalues --   -1.02582  -1.02395  -1.02117  -0.94349  -0.91800
 Alpha  occ. eigenvalues --   -0.91666  -0.91178  -0.87472  -0.86450  -0.85721
 Alpha  occ. eigenvalues --   -0.83952  -0.83544  -0.82243  -0.81036  -0.79890
 Alpha  occ. eigenvalues --   -0.77522  -0.76998  -0.74879  -0.73247  -0.72655
 Alpha  occ. eigenvalues --   -0.72383  -0.72166  -0.71389  -0.70846  -0.69954
 Alpha  occ. eigenvalues --   -0.69464  -0.68979  -0.68343  -0.67678  -0.66925
 Alpha  occ. eigenvalues --   -0.66239  -0.64338  -0.64289  -0.64183  -0.63324
 Alpha  occ. eigenvalues --   -0.63036  -0.62579  -0.61436  -0.60769  -0.59631
 Alpha  occ. eigenvalues --   -0.59556  -0.58919  -0.58574  -0.58415  -0.57800
 Alpha  occ. eigenvalues --   -0.57743  -0.57340  -0.56767  -0.55828  -0.55304
 Alpha  occ. eigenvalues --   -0.55000  -0.54874  -0.54739  -0.54122  -0.54056
 Alpha  occ. eigenvalues --   -0.53727  -0.53406  -0.53106  -0.52634  -0.52409
 Alpha  occ. eigenvalues --   -0.52077  -0.51874  -0.51662  -0.51195  -0.50752
 Alpha  occ. eigenvalues --   -0.50329  -0.50111  -0.49775  -0.49258  -0.48835
 Alpha  occ. eigenvalues --   -0.48335  -0.48120  -0.47636  -0.47013  -0.46713
 Alpha  occ. eigenvalues --   -0.46395  -0.46234  -0.46072  -0.45999  -0.45724
 Alpha  occ. eigenvalues --   -0.45466  -0.44964  -0.43946  -0.43598  -0.42633
 Alpha  occ. eigenvalues --   -0.41422  -0.40476  -0.39296  -0.39220  -0.38585
 Alpha  occ. eigenvalues --   -0.38010  -0.37772  -0.37583  -0.36755  -0.36619
 Alpha  occ. eigenvalues --   -0.35823  -0.35438  -0.34992  -0.34872  -0.34109
 Alpha  occ. eigenvalues --   -0.33023  -0.31044
 Alpha virt. eigenvalues --   -0.12103  -0.10791  -0.10506  -0.09420  -0.08757
 Alpha virt. eigenvalues --   -0.08479  -0.08356  -0.07985  -0.06828  -0.06522
 Alpha virt. eigenvalues --   -0.05305  -0.03660  -0.03091  -0.02579  -0.02175

 Mulliken charges:
               1
     1  N   -0.812450
     2  C   -0.096936
     3  C    0.590492
     4  O   -0.452365
     5  C   -0.324024
     6  C   -0.366246
     7  C    0.636082
     8  O   -0.553123
     9  O   -0.647682
    10  H    0.390825
    11  H    0.214552
    12  H    0.173938
    13  H    0.221075
    14  H    0.180839
    15  H    0.213997
    16  H    0.396626
    17  H    0.464060
    18  N   -0.586351
    19  C   -0.096976
    20  C    0.608207
    21  O   -0.482132
    22  C   -0.370562
    23  C    0.066098
    24  C   -0.029716
    25  C    0.066349
    26  C    0.317168
    27  C   -0.244694
    28  N   -0.688468
    29  C   -0.165531
    30  C   -0.185131
    31  C   -0.151612
    32  H    0.359629
    33  H    0.128697
    34  H    0.185969
    35  H    0.186543
    36  H    0.175614
    37  H    0.344671
    38  H    0.176871
    39  H    0.147037
    40  H    0.163114
    41  H    0.153940
    42  N   -0.582581
    43  C   -0.112430
    44  C    0.616105
    45  O   -0.517621
    46  C    0.153919
    47  C   -0.517199
    48  O   -0.653180
    49  H    0.425372
    50  H    0.358175
    51  H    0.162702
    52  H    0.159072
    53  H    0.170992
    54  H    0.199993
    55  H    0.178344
    56  N   -0.605936
    57  C   -0.049466
    58  C    0.620136
    59  O   -0.444929
    60  C   -0.373300
    61  C   -0.312063
    62  C   -0.160896
    63  N   -0.638969
    64  C    0.781504
    65  N   -0.758228
    66  N   -0.787137
    67  O   -0.605840
    68  H    0.439272
    69  H    0.364437
    70  H    0.184042
    71  H    0.191850
    72  H    0.150849
    73  H    0.153483
    74  H    0.182313
    75  H    0.170210
    76  H    0.183717
    77  H    0.421298
    78  H    0.375840
    79  H    0.378782
    80  H    0.430551
    81  H    0.358423
 Sum of Mulliken charges =   1.00000

 Dipole moment (field-independent basis, Debye):
    X=             37.9885    Y=            153.6817    Z=             45.5977  Tot=            164.7433
 Quadrupole moment (field-independent basis, Debye-Ang):
   XX=             70.9767   YY=           4719.7234   ZZ=            205.6467
   XY=           1189.0100   XZ=            355.6871   YZ=           1450.2137

 Normal termination of Gaussian 16 at Fri May 27 05:10:31 2022.
