 Gaussian 16, Revision C.01,
 Gaussian 16:  ES64L-G16RevC.01  3-Jul-2019

 ----------------------------------------------------------------------
 # B3LYP/6-31G* empiricaldispersion=gd3 guess=read geom=check nosymm in
 tegral(ultrafinegrid)
 ----------------------------------------------------------------------

 ------------------------------------------------------
 Candidate Structure: Conf:123 Charge calc in gas phase
 ------------------------------------------------------
 Structure from the checkpoint file:  "conf-123.chk"
 Charge =  1 Multiplicity = 1

                          Input orientation:
 ---------------------------------------------------------------------
 Center     Atomic      Atomic             Coordinates (Angstroms)
 Number     Number       Type             X           Y           Z
 ---------------------------------------------------------------------
      1          7           0       10.107715   33.871692   13.127636
      2          6           0        8.936329   34.753222   12.762507
      3          6           0        7.643016   34.534828   13.582198
      4          8           0        7.229973   35.465891   14.258796
      5          6           0        8.655160   34.710982   11.250811
      6          6           0        9.708653   35.411730   10.373321
      7          6           0       10.966834   34.600771   10.050898
      8          8           0       11.509814   34.779882    8.954113
      9          8           0       11.401927   33.760808   10.944213
     10          1           0        9.827662   32.917901   13.373870
     11          1           0        9.241086   35.765453   13.033828
     12          1           0        8.503602   33.677345   10.916578
     13          1           0        7.695061   35.217314   11.107395
     14          1           0       10.023625   36.353781   10.844083
     15          1           0        9.263054   35.690947    9.415462
     16          1           0       10.789235   33.827649   12.215463
     17          1           0       10.587643   34.222213   13.959779
     18          7           0        6.898105   33.404435   13.383599
     19          6           0        7.309332   32.049623   13.070799
     20          6           0        6.184992   31.397425   12.238156
     21          8           0        5.044169   31.824103   12.313108
     22          6           0        7.557979   31.238779   14.382049
     23          6           0        8.736660   31.745441   15.154162
     24          6           0        8.808628   32.882998   15.926962
     25          6           0       10.064803   31.173006   15.136925
     26          6           0       10.900772   32.028478   15.906830
     27          6           0       10.613907   30.001155   14.581878
     28          7           0       10.113335   33.081801   16.345226
     29          6           0       12.256627   31.756736   16.120257
     30          6           0       11.956177   29.722234   14.803781
     31          6           0       12.770672   30.593970   15.558104
     32          1           0        5.957803   33.467855   13.765358
     33          1           0        8.225014   32.082175   12.475475
     34          1           0        7.709786   30.182951   14.137013
     35          1           0        6.634170   31.290411   14.969168
     36          1           0        8.036742   33.593922   16.186773
     37          1           0       10.383092   33.738872   17.063997
     38          1           0        9.997406   29.310243   14.012617
     39          1           0       12.879169   32.417176   16.717013
     40          1           0       12.389470   28.812865   14.397782
     41          1           0       13.815462   30.344220   15.715479
     42          7           0        6.510565   30.326102   11.450959
     43          6           0        7.786081   29.654378   11.290095
     44          6           0        8.054974   29.493058    9.782391
     45          8           0        7.087379   29.327156    9.049110
     46          6           0        7.744989   28.265348   11.988515
     47          6           0        6.860196   27.224356   11.317358
     48          8           0        9.119956   27.820475   12.070019
     49          1           0        9.142076   26.975931   12.551132
     50          1           0        5.770719   30.016184   10.828089
     51          1           0        8.560316   30.236517   11.778839
     52          1           0        7.384243   28.448927   13.008151
     53          1           0        7.208174   26.993102   10.307438
     54          1           0        5.827764   27.579282   11.250814
     55          1           0        6.854368   26.302664   11.910251
     56          7           0        9.319962   29.443171    9.249672
     57          6           0       10.715794   29.681497    9.655632
     58          6           0       11.524938   28.371052    9.580429
     59          8           0       12.572470   28.313023    8.957915
     60          6           0       10.939525   30.405288   10.993993
     61          6           0       12.399853   30.491004   11.485641
     62          6           0       13.492478   30.914960   10.487808
     63          7           0       13.042954   31.928743    9.537249
     64          6           0       13.212677   31.888026    8.212676
     65          7           0       13.559453   30.741342    7.593662
     66          7           0       13.058528   33.017754    7.506746
     67          8           0       11.049962   27.320436   10.232018
     68          1           0       10.219207   27.541543   10.723205
     69          1           0        9.234062   29.256790    8.253944
     70          1           0       11.138300   30.312172    8.872582
     71          1           0       10.399700   29.892661   11.788834
     72          1           0       10.533060   31.417645   10.889756
     73          1           0       12.392157   31.180899   12.334737
     74          1           0       12.701657   29.522004   11.899529
     75          1           0       14.345074   31.316607   11.048651
     76          1           0       13.857119   30.047813    9.943743
     77          1           0       12.608078   32.764810    9.952557
     78          1           0       13.772762   30.756299    6.607292
     79          1           0       13.352244   29.833616    8.015747
     80          1           0       12.647642   33.826653    8.001942
     81          1           0       12.869434   32.950489    6.516209
 ---------------------------------------------------------------------

 SCF Done:  E(RB3LYP) =  -2054.06929347     A.U. after    1 cycles

 Alpha  occ. eigenvalues --  -19.30309 -19.29419 -19.24989 -19.23118 -19.22994
 Alpha  occ. eigenvalues --  -19.22239 -19.22066 -19.20956 -14.53296 -14.49536
 Alpha  occ. eigenvalues --  -14.48365 -14.47835 -14.47570 -14.46955 -14.46750
 Alpha  occ. eigenvalues --  -14.46598 -10.44329 -10.43120 -10.41022 -10.40235
 Alpha  occ. eigenvalues --  -10.39879 -10.39459 -10.37397 -10.36593 -10.36385
 Alpha  occ. eigenvalues --  -10.36253 -10.36044 -10.33373 -10.33261 -10.33213
 Alpha  occ. eigenvalues --  -10.31382 -10.31352 -10.31202 -10.30317 -10.29991
 Alpha  occ. eigenvalues --  -10.29947 -10.29802 -10.29637 -10.29258 -10.29171
 Alpha  occ. eigenvalues --  -10.28975 -10.28796  -1.21007  -1.16870  -1.15494
 Alpha  occ. eigenvalues --   -1.15200  -1.14722  -1.14029  -1.12834  -1.12466
 Alpha  occ. eigenvalues --   -1.09473  -1.08792  -1.05932  -1.04110  -1.03663
 Alpha  occ. eigenvalues --   -1.03460  -1.02205  -1.00587  -0.94961  -0.92111
 Alpha  occ. eigenvalues --   -0.91786  -0.90973  -0.89848  -0.87125  -0.86000
 Alpha  occ. eigenvalues --   -0.84555  -0.83294  -0.83250  -0.82696  -0.80008
 Alpha  occ. eigenvalues --   -0.78378  -0.75595  -0.74572  -0.74273  -0.73176
 Alpha  occ. eigenvalues --   -0.72820  -0.72454  -0.71846  -0.70274  -0.70221
 Alpha  occ. eigenvalues --   -0.69736  -0.69207  -0.68209  -0.67311  -0.66675
 Alpha  occ. eigenvalues --   -0.66128  -0.65759  -0.64839  -0.64568  -0.63722
 Alpha  occ. eigenvalues --   -0.62916  -0.62289  -0.61361  -0.61226  -0.60362
 Alpha  occ. eigenvalues --   -0.59744  -0.59610  -0.59207  -0.58810  -0.58238
 Alpha  occ. eigenvalues --   -0.57730  -0.57439  -0.57152  -0.56975  -0.56699
 Alpha  occ. eigenvalues --   -0.55808  -0.55477  -0.55044  -0.54673  -0.54184
 Alpha  occ. eigenvalues --   -0.54066  -0.53863  -0.53677  -0.53313  -0.52821
 Alpha  occ. eigenvalues --   -0.52650  -0.52404  -0.52035  -0.51640  -0.51204
 Alpha  occ. eigenvalues --   -0.51137  -0.50931  -0.50002  -0.49774  -0.49310
 Alpha  occ. eigenvalues --   -0.48974  -0.48773  -0.48573  -0.48406  -0.47953
 Alpha  occ. eigenvalues --   -0.47400  -0.47023  -0.46734  -0.46457  -0.46192
 Alpha  occ. eigenvalues --   -0.45602  -0.45484  -0.45157  -0.44375  -0.44113
 Alpha  occ. eigenvalues --   -0.42104  -0.41994  -0.40025  -0.39155  -0.39077
 Alpha  occ. eigenvalues --   -0.38200  -0.37774  -0.37430  -0.37010  -0.36754
 Alpha  occ. eigenvalues --   -0.36331  -0.36115  -0.35782  -0.35171  -0.34569
 Alpha  occ. eigenvalues --   -0.33599  -0.31660
 Alpha virt. eigenvalues --   -0.12569  -0.11411  -0.10289  -0.09712  -0.09223
 Alpha virt. eigenvalues --   -0.08924  -0.08611  -0.07024  -0.06520  -0.06231
 Alpha virt. eigenvalues --   -0.05197  -0.04158  -0.04008  -0.02601  -0.01805

 Mulliken charges:
               1
     1  N   -0.822013
     2  C   -0.085461
     3  C    0.578481
     4  O   -0.481602
     5  C   -0.306841
     6  C   -0.375999
     7  C    0.634772
     8  O   -0.541667
     9  O   -0.661421
    10  H    0.400433
    11  H    0.210511
    12  H    0.160804
    13  H    0.203680
    14  H    0.183014
    15  H    0.196788
    16  H    0.461998
    17  H    0.392271
    18  N   -0.565342
    19  C   -0.098522
    20  C    0.626660
    21  O   -0.482071
    22  C   -0.360884
    23  C    0.028493
    24  C   -0.012957
    25  C    0.048856
    26  C    0.287560
    27  C   -0.224482
    28  N   -0.688077
    29  C   -0.163310
    30  C   -0.147399
    31  C   -0.151377
    32  H    0.364313
    33  H    0.134275
    34  H    0.163930
    35  H    0.190049
    36  H    0.204241
    37  H    0.354199
    38  H    0.141575
    39  H    0.154275
    40  H    0.143403
    41  H    0.155837
    42  N   -0.609039
    43  C   -0.080473
    44  C    0.621466
    45  O   -0.494721
    46  C    0.119800
    47  C   -0.478539
    48  O   -0.651780
    49  H    0.431107
    50  H    0.369903
    51  H    0.158644
    52  H    0.166092
    53  H    0.190279
    54  H    0.186449
    55  H    0.164790
    56  N   -0.638917
    57  C   -0.062456
    58  C    0.624484
    59  O   -0.477404
    60  C   -0.334629
    61  C   -0.292413
    62  C   -0.163891
    63  N   -0.628713
    64  C    0.750028
    65  N   -0.788248
    66  N   -0.773487
    67  O   -0.575808
    68  H    0.457018
    69  H    0.354390
    70  H    0.175775
    71  H    0.183984
    72  H    0.164731
    73  H    0.168047
    74  H    0.169359
    75  H    0.184198
    76  H    0.195256
    77  H    0.413162
    78  H    0.362387
    79  H    0.415294
    80  H    0.422051
    81  H    0.350831
 Sum of Mulliken charges =   1.00000

 Dipole moment (field-independent basis, Debye):
    X=             53.2185    Y=            149.7836    Z=             57.7140  Tot=            169.1101
 Quadrupole moment (field-independent basis, Debye-Ang):
   XX=            347.6058   YY=           4451.3767   ZZ=            515.1055
   XY=           1679.4032   XZ=            623.4395   YZ=           1805.2226

 Normal termination of Gaussian 16 at Fri May 27 05:10:02 2022.
