 Gaussian 16, Revision C.01,
 Gaussian 16:  ES64L-G16RevC.01  3-Jul-2019

 ----------------------------------------------------------------------
 # B3LYP/6-31G* empiricaldispersion=gd3 guess=read geom=check nosymm in
 tegral(ultrafinegrid)
 ----------------------------------------------------------------------

 ------------------------------------------------------
 Candidate Structure: Conf:322 Charge calc in gas phase
 ------------------------------------------------------
 Structure from the checkpoint file:  "conf-322.chk"
 Charge =  1 Multiplicity = 1

                          Input orientation:
 ---------------------------------------------------------------------
 Center     Atomic      Atomic             Coordinates (Angstroms)
 Number     Number       Type             X           Y           Z
 ---------------------------------------------------------------------
      1          7           0       -9.259065    0.661356   -6.754846
      2          6           0       -7.929447    1.106091   -6.323758
      3          6           0       -6.793730    0.869820   -7.342159
      4          8           0       -6.333949    1.806482   -7.983618
      5          6           0       -7.579932    0.461099   -4.946907
      6          6           0       -8.832322    0.291231   -4.163627
      7          7           0       -9.421504   -0.873602   -4.080423
      8          8           0       -9.277636    1.364833   -3.561998
      9          1           0       -9.199170   -0.298644   -7.082385
     10          1           0      -10.149321    1.256969   -3.137237
     11          1           0       -7.970147    2.189151   -6.193254
     12          1           0       -7.105219   -0.511965   -5.061657
     13          1           0       -6.880969    1.097179   -4.396851
     14          1           0      -10.312312   -1.003516   -3.611670
     15          1           0       -9.089473   -1.636469   -4.696259
     16          1           0       -9.533670    1.187995   -7.583025
     17          7           0       -6.355038   -0.419472   -7.494636
     18          6           0       -5.045133   -0.688175   -8.082396
     19          6           0       -5.094662   -1.856725   -9.087950
     20          8           0       -4.364978   -2.839384   -8.940988
     21          6           0       -3.970898   -0.962814   -6.997882
     22          6           0       -4.091396   -0.089866   -5.767225
     23          6           0       -4.045285    1.310131   -5.843619
     24          6           0       -4.258377   -0.682094   -4.507576
     25          6           0       -4.172242    2.092397   -4.694721
     26          6           0       -4.373309    0.095641   -3.352605
     27          6           0       -4.334827    1.488690   -3.443476
     28          1           0       -6.836209   -1.178652   -7.025081
     29          1           0       -4.787210    0.222360   -8.631755
     30          1           0       -4.029728   -2.012673   -6.700332
     31          1           0       -2.986480   -0.849054   -7.466603
     32          1           0       -3.931181    1.794650   -6.808439
     33          1           0       -4.278829   -1.767303   -4.427562
     34          1           0       -4.132983    3.175015   -4.776324
     35          1           0       -4.482150   -0.386414   -2.384572
     36          1           0       -4.414806    2.099184   -2.548242
     37          7           0       -5.946637   -1.773009  -10.146921
     38          6           0       -7.017295   -0.811411  -10.366270
     39          6           0       -8.327585   -1.145631   -9.625344
     40          8           0       -9.212452   -0.294223   -9.548150
     41          6           0       -7.304312   -0.623962  -11.865932
     42          6           0       -7.783371   -1.912574  -12.537994
     43          7           0       -8.189897   -1.783286  -13.822931
     44          8           0       -7.792363   -2.991626  -11.944930
     45          1           0       -5.999993   -2.618109  -10.710343
     46          1           0       -6.715238    0.163664   -9.977077
     47          1           0       -6.395815   -0.267627  -12.366150
     48          1           0       -8.065998    0.156306  -11.971032
     49          1           0       -8.468982   -2.613708  -14.327831
     50          1           0       -8.168853   -0.902957  -14.316455
     51          7           0       -8.420570   -2.376544   -9.054403
     52          6           0       -9.628234   -2.796030   -8.387507
     53          6           0       -9.369842   -2.986898   -6.889308
     54          8           0       -8.503259   -2.366275   -6.267746
     55          6           0      -10.356703   -3.942802   -9.129422
     56          6           0       -9.526903   -5.182019   -9.487399
     57          6           0       -8.949785   -5.964994   -8.304149
     58          7           0       -8.095898   -5.150437   -7.419371
     59          6           0       -6.796273   -4.829618   -7.855666
     60          7           0       -6.492962   -4.958629   -9.095455
     61          7           0       -5.980454   -4.381188   -6.822118
     62          8           0      -10.298838   -3.629128   -6.167029
     63          1           0      -10.915597   -4.105651   -6.750153
     64          1           0       -7.745121   -3.094035   -9.310659
     65          1           0      -10.298578   -1.921950   -8.413887
     66          1           0      -11.263439   -4.232464   -8.570590
     67          1           0      -10.731860   -3.500148  -10.057975
     68          1           0      -10.176376   -5.865241  -10.048360
     69          1           0       -8.717459   -4.902050  -10.165045
     70          1           0       -9.764725   -6.344468   -7.674251
     71          1           0       -8.390311   -6.826098   -8.688204
     72          1           0       -8.089274   -5.499123   -6.465899
     73          1           0       -5.545401   -4.622646   -9.273249
     74          1           0       -5.122789   -3.948187   -7.149841
     75          1           0       -6.450154   -3.845954   -6.099980
 ---------------------------------------------------------------------

 SCF Done:  E(RB3LYP) =  -1917.44976239     A.U. after    3 cycles

 Alpha  occ. eigenvalues --  -19.38147 -19.33044 -19.27818 -19.21779 -19.21713
 Alpha  occ. eigenvalues --  -19.21476 -19.21076 -14.54634 -14.45905 -14.45764
 Alpha  occ. eigenvalues --  -14.45392 -14.45052 -14.44702 -14.43172 -14.42816
 Alpha  occ. eigenvalues --  -14.36910 -10.49694 -10.46179 -10.38823 -10.38803
 Alpha  occ. eigenvalues --  -10.38783 -10.38734 -10.36961 -10.35465 -10.34502
 Alpha  occ. eigenvalues --  -10.33633 -10.33296 -10.33141 -10.30975 -10.30362
 Alpha  occ. eigenvalues --  -10.29778 -10.28406 -10.27896 -10.27652 -10.27558
 Alpha  occ. eigenvalues --  -10.27463 -10.27407 -10.27166 -10.27104  -1.27993
 Alpha  occ. eigenvalues --   -1.24016  -1.15297  -1.14050  -1.13594  -1.13151
 Alpha  occ. eigenvalues --   -1.12707  -1.11154  -1.06665  -1.03586  -1.02752
 Alpha  occ. eigenvalues --   -1.01591  -1.00395  -0.99854  -0.97756  -0.94070
 Alpha  occ. eigenvalues --   -0.92886  -0.91682  -0.89949  -0.87947  -0.87391
 Alpha  occ. eigenvalues --   -0.84303  -0.83386  -0.82834  -0.81470  -0.78228
 Alpha  occ. eigenvalues --   -0.77578  -0.77124  -0.75864  -0.75158  -0.74636
 Alpha  occ. eigenvalues --   -0.71135  -0.70707  -0.69744  -0.69387  -0.68762
 Alpha  occ. eigenvalues --   -0.68080  -0.67782  -0.66858  -0.66711  -0.65617
 Alpha  occ. eigenvalues --   -0.64180  -0.63252  -0.63027  -0.62727  -0.62000
 Alpha  occ. eigenvalues --   -0.60701  -0.60499  -0.59666  -0.59359  -0.59144
 Alpha  occ. eigenvalues --   -0.58924  -0.57688  -0.57364  -0.56610  -0.56135
 Alpha  occ. eigenvalues --   -0.55976  -0.55705  -0.54883  -0.54599  -0.54541
 Alpha  occ. eigenvalues --   -0.54254  -0.53629  -0.53545  -0.53275  -0.52958
 Alpha  occ. eigenvalues --   -0.52639  -0.51474  -0.51382  -0.51059  -0.50548
 Alpha  occ. eigenvalues --   -0.50298  -0.50122  -0.50007  -0.49641  -0.48931
 Alpha  occ. eigenvalues --   -0.48631  -0.48296  -0.47814  -0.47333  -0.47046
 Alpha  occ. eigenvalues --   -0.46397  -0.46272  -0.45743  -0.45294  -0.44963
 Alpha  occ. eigenvalues --   -0.44648  -0.44130  -0.43912  -0.42975  -0.42364
 Alpha  occ. eigenvalues --   -0.42040  -0.41774  -0.38594  -0.38333  -0.36927
 Alpha  occ. eigenvalues --   -0.36378  -0.36029  -0.35350  -0.35049  -0.34751
 Alpha  occ. eigenvalues --   -0.34278  -0.33615  -0.33533  -0.33259  -0.32944
 Alpha  occ. eigenvalues --   -0.31913
 Alpha virt. eigenvalues --   -0.17379  -0.12642  -0.10245  -0.09250  -0.09062
 Alpha virt. eigenvalues --   -0.08648  -0.08314  -0.08047  -0.06699  -0.06409
 Alpha virt. eigenvalues --   -0.04797  -0.04415  -0.02691  -0.00814  -0.00243

 Mulliken charges:
               1
     1  N   -0.765608
     2  C   -0.074862
     3  C    0.635788
     4  O   -0.518850
     5  C   -0.381738
     6  C    0.649129
     7  N   -0.707820
     8  O   -0.506334
     9  H    0.329381
    10  H    0.448973
    11  H    0.199745
    12  H    0.194362
    13  H    0.237264
    14  H    0.374194
    15  H    0.432751
    16  H    0.352237
    17  N   -0.643564
    18  C   -0.074615
    19  C    0.615674
    20  O   -0.527080
    21  C   -0.363915
    22  C    0.172516
    23  C   -0.182996
    24  C   -0.210169
    25  C   -0.140712
    26  C   -0.134524
    27  C   -0.148119
    28  H    0.362993
    29  H    0.211655
    30  H    0.155075
    31  H    0.190084
    32  H    0.160881
    33  H    0.128972
    34  H    0.154476
    35  H    0.142172
    36  H    0.147625
    37  N   -0.622035
    38  C   -0.060389
    39  C    0.643499
    40  O   -0.557173
    41  C   -0.391828
    42  C    0.606664
    43  N   -0.740670
    44  O   -0.524326
    45  H    0.372673
    46  H    0.209338
    47  H    0.197913
    48  H    0.205314
    49  H    0.360906
    50  H    0.355867
    51  N   -0.619145
    52  C   -0.091176
    53  C    0.691064
    54  O   -0.556454
    55  C   -0.304906
    56  C   -0.292713
    57  C   -0.128928
    58  N   -0.642825
    59  C    0.581372
    60  N   -0.671332
    61  N   -0.787352
    62  O   -0.577211
    63  H    0.436466
    64  H    0.401700
    65  H    0.212874
    66  H    0.120254
    67  H    0.192151
    68  H    0.160237
    69  H    0.231339
    70  H    0.129793
    71  H    0.188495
    72  H    0.336572
    73  H    0.323782
    74  H    0.371993
    75  H    0.323158
 Sum of Mulliken charges =   1.00000

 Dipole moment (field-independent basis, Debye):
    X=            -45.1216    Y=             -5.8387    Z=            -30.6785  Tot=             54.8746
 Quadrupole moment (field-independent basis, Debye-Ang):
   XX=            211.9653   YY=           -201.2054   ZZ=             66.0984
   XY=             72.6535   XZ=            283.0002   YZ=             46.9193

 Normal termination of Gaussian 16 at Tue Jun  7 01:06:50 2022.
