 Gaussian 16, Revision C.01,
 Gaussian 16:  ES64L-G16RevC.01  3-Jul-2019

 ----------------------------------------------------------------------
 # B3LYP/6-31G* empiricaldispersion=gd3 guess=read geom=check nosymm in
 tegral(ultrafinegrid)
 ----------------------------------------------------------------------

 ------------------------------------------------------
 Candidate Structure: Conf:549 Charge calc in gas phase
 ------------------------------------------------------
 Structure from the checkpoint file:  "conf-549.chk"
 Charge =  1 Multiplicity = 1

                          Input orientation:
 ---------------------------------------------------------------------
 Center     Atomic      Atomic             Coordinates (Angstroms)
 Number     Number       Type             X           Y           Z
 ---------------------------------------------------------------------
      1          7           0      -10.613728   -0.440835   -8.542348
      2          6           0      -10.068490   -1.697617   -8.033873
      3          6           0       -9.449010   -1.550428   -6.626179
      4          8           0       -9.993544   -0.787750   -5.831388
      5          6           0       -9.099264   -2.271247   -9.098655
      6          6           0       -9.836192   -2.342987  -10.389678
      7          7           0       -9.634651   -1.486101  -11.346307
      8          8           0      -10.695336   -3.335133  -10.481142
      9          1           0      -11.273745   -0.084789   -7.851686
     10          1           0      -11.242063   -3.315365  -11.288772
     11          1           0      -10.905384   -2.398923   -7.920264
     12          1           0       -8.215642   -1.634528   -9.203964
     13          1           0       -8.777314   -3.283134   -8.835483
     14          1           0      -10.192250   -1.478575  -12.194869
     15          1           0       -9.032608   -0.655878  -11.158900
     16          1           0       -9.871128    0.262870   -8.584288
     17          7           0       -8.328772   -2.257482   -6.338726
     18          6           0       -7.644449   -2.156110   -5.051103
     19          6           0       -6.201329   -1.700341   -5.337635
     20          8           0       -5.240570   -2.459222   -5.188757
     21          6           0       -7.727203   -3.462011   -4.220301
     22          6           0       -7.430517   -4.742496   -4.972102
     23          6           0       -8.410892   -5.320725   -5.792158
     24          6           0       -6.177618   -5.366300   -4.887272
     25          6           0       -8.137772   -6.468634   -6.539056
     26          6           0       -5.902589   -6.518879   -5.626245
     27          6           0       -6.877602   -7.068568   -6.463880
     28          1           0       -7.868973   -2.855822   -7.023809
     29          1           0       -8.166182   -1.378546   -4.487878
     30          1           0       -7.051007   -3.355593   -3.366885
     31          1           0       -8.747766   -3.507237   -3.823751
     32          1           0       -9.398120   -4.867623   -5.840464
     33          1           0       -5.409137   -4.925889   -4.260932
     34          1           0       -8.913820   -6.906783   -7.161671
     35          1           0       -4.926569   -6.989257   -5.545379
     36          1           0       -6.665463   -7.970541   -7.031451
     37          7           0       -6.029037   -0.442570   -5.825651
     38          6           0       -7.015069    0.583609   -6.120919
     39          6           0       -7.207268    0.873106   -7.624962
     40          8           0       -7.982140    1.773325   -7.951414
     41          6           0       -6.651014    1.917723   -5.435949
     42          6           0       -5.331304    2.481827   -5.963144
     43          7           0       -4.935974    3.655904   -5.419874
     44          8           0       -4.673842    1.894555   -6.824843
     45          1           0       -5.067752   -0.187752   -6.035110
     46          1           0       -7.990628    0.292038   -5.733294
     47          1           0       -6.585794    1.761176   -4.352845
     48          1           0       -7.456288    2.634840   -5.624278
     49          1           0       -4.073165    4.073039   -5.742307
     50          1           0       -5.489653    4.156024   -4.739961
     51          7           0       -6.490263    0.179402   -8.560212
     52          6           0       -6.087756    0.969851   -9.723911
     53          6           0       -7.286747    1.433330  -10.531753
     54          8           0       -8.261047    0.763288  -10.855067
     55          6           0       -5.061440    0.247177  -10.627470
     56          6           0       -5.534026   -0.956400  -11.479650
     57          6           0       -5.092741   -2.352043  -11.006047
     58          7           0       -5.898603   -2.932919   -9.926966
     59          6           0       -5.453561   -2.932221   -8.618361
     60          7           0       -4.591911   -2.058034   -8.224769
     61          7           0       -6.138484   -3.835013   -7.791508
     62          8           0       -7.123229    2.680197  -10.972557
     63          1           0       -7.898350    2.913541  -11.518548
     64          1           0       -5.759968   -0.468064   -8.242543
     65          1           0       -5.596588    1.877990   -9.355769
     66          1           0       -4.671409    1.022797  -11.295437
     67          1           0       -4.231392   -0.053814   -9.980258
     68          1           0       -6.622139   -0.950841  -11.604849
     69          1           0       -5.117488   -0.830778  -12.486722
     70          1           0       -5.158160   -3.040269  -11.856300
     71          1           0       -4.046672   -2.323510  -10.683897
     72          1           0       -6.447701   -3.739510  -10.188819
     73          1           0       -4.332975   -2.220003   -7.251097
     74          1           0       -5.737444   -3.899526   -6.858726
     75          1           0       -6.295778   -4.770987   -8.156656
 ---------------------------------------------------------------------

 SCF Done:  E(RB3LYP) =  -1917.45723909     A.U. after    3 cycles

 Alpha  occ. eigenvalues --  -19.38191 -19.30492 -19.25848 -19.21630 -19.21558
 Alpha  occ. eigenvalues --  -19.21308 -19.20859 -14.54048 -14.46190 -14.45475
 Alpha  occ. eigenvalues --  -14.45157 -14.44845 -14.44439 -14.44282 -14.41815
 Alpha  occ. eigenvalues --  -14.37846 -10.49459 -10.43646 -10.38802 -10.38643
 Alpha  occ. eigenvalues --  -10.38524 -10.38324 -10.38120 -10.34728 -10.33735
 Alpha  occ. eigenvalues --  -10.33358 -10.33152 -10.32976 -10.31256 -10.29297
 Alpha  occ. eigenvalues --  -10.28338 -10.28036 -10.27987 -10.27863 -10.27490
 Alpha  occ. eigenvalues --  -10.27265 -10.27250 -10.27081 -10.26666  -1.27918
 Alpha  occ. eigenvalues --   -1.22011  -1.13957  -1.13565  -1.13010  -1.12761
 Alpha  occ. eigenvalues --   -1.12372  -1.10780  -1.07549  -1.03140  -1.02147
 Alpha  occ. eigenvalues --   -1.00930  -1.00046  -0.99633  -0.98570  -0.93969
 Alpha  occ. eigenvalues --   -0.93542  -0.91660  -0.89044  -0.87827  -0.87181
 Alpha  occ. eigenvalues --   -0.84015  -0.83258  -0.82563  -0.81091  -0.77872
 Alpha  occ. eigenvalues --   -0.77414  -0.77105  -0.75761  -0.74706  -0.72661
 Alpha  occ. eigenvalues --   -0.71108  -0.69633  -0.69336  -0.68630  -0.68528
 Alpha  occ. eigenvalues --   -0.68002  -0.67562  -0.66560  -0.66196  -0.64293
 Alpha  occ. eigenvalues --   -0.63718  -0.62909  -0.62893  -0.62495  -0.61517
 Alpha  occ. eigenvalues --   -0.60954  -0.60237  -0.59509  -0.59354  -0.58323
 Alpha  occ. eigenvalues --   -0.57430  -0.57084  -0.56767  -0.56681  -0.56276
 Alpha  occ. eigenvalues --   -0.55631  -0.55548  -0.54986  -0.54911  -0.54052
 Alpha  occ. eigenvalues --   -0.53824  -0.53308  -0.52968  -0.52749  -0.52354
 Alpha  occ. eigenvalues --   -0.51974  -0.51523  -0.51282  -0.50384  -0.50262
 Alpha  occ. eigenvalues --   -0.49821  -0.49711  -0.49491  -0.49326  -0.49187
 Alpha  occ. eigenvalues --   -0.48840  -0.47950  -0.47527  -0.47454  -0.46597
 Alpha  occ. eigenvalues --   -0.46148  -0.45725  -0.45529  -0.45041  -0.44445
 Alpha  occ. eigenvalues --   -0.43744  -0.43733  -0.42963  -0.42591  -0.42019
 Alpha  occ. eigenvalues --   -0.41837  -0.39568  -0.38022  -0.37362  -0.36808
 Alpha  occ. eigenvalues --   -0.36271  -0.36100  -0.35717  -0.35395  -0.34571
 Alpha  occ. eigenvalues --   -0.34462  -0.34384  -0.33394  -0.33125  -0.32393
 Alpha  occ. eigenvalues --   -0.32337
 Alpha virt. eigenvalues --   -0.17236  -0.10515  -0.10305  -0.09582  -0.08773
 Alpha virt. eigenvalues --   -0.08505  -0.08205  -0.06642  -0.06572  -0.05283
 Alpha virt. eigenvalues --   -0.05089  -0.04154  -0.02076  -0.00808  -0.00487

 Mulliken charges:
               1
     1  N   -0.748575
     2  C   -0.086865
     3  C    0.614019
     4  O   -0.521370
     5  C   -0.401432
     6  C    0.640187
     7  N   -0.719099
     8  O   -0.521214
     9  H    0.340338
    10  H    0.448734
    11  H    0.192903
    12  H    0.244364
    13  H    0.194837
    14  H    0.371061
    15  H    0.483592
    16  H    0.339061
    17  N   -0.646232
    18  C   -0.076584
    19  C    0.608341
    20  O   -0.532745
    21  C   -0.349098
    22  C    0.151648
    23  C   -0.183690
    24  C   -0.194219
    25  C   -0.144436
    26  C   -0.135184
    27  C   -0.149550
    28  H    0.413749
    29  H    0.203637
    30  H    0.177931
    31  H    0.170855
    32  H    0.127717
    33  H    0.164857
    34  H    0.136950
    35  H    0.153211
    36  H    0.146782
    37  N   -0.611323
    38  C   -0.084444
    39  C    0.626863
    40  O   -0.540054
    41  C   -0.377891
    42  C    0.620915
    43  N   -0.743722
    44  O   -0.535274
    45  H    0.366274
    46  H    0.218165
    47  H    0.186336
    48  H    0.212151
    49  H    0.360851
    50  H    0.355830
    51  N   -0.643226
    52  C   -0.040498
    53  C    0.650104
    54  O   -0.540808
    55  C   -0.321204
    56  C   -0.265349
    57  C   -0.142074
    58  N   -0.586637
    59  C    0.598333
    60  N   -0.699127
    61  N   -0.835396
    62  O   -0.535219
    63  H    0.425785
    64  H    0.408447
    65  H    0.204212
    66  H    0.169915
    67  H    0.211090
    68  H    0.122234
    69  H    0.156248
    70  H    0.145761
    71  H    0.194296
    72  H    0.312247
    73  H    0.320492
    74  H    0.388136
    75  H    0.333081
 Sum of Mulliken charges =   1.00000

 Dipole moment (field-independent basis, Debye):
    X=            -39.7706    Y=             -7.4625    Z=            -46.5790  Tot=             61.7008
 Quadrupole moment (field-independent basis, Debye-Ang):
   XX=            124.6834   YY=           -151.0895   ZZ=            281.5918
   XY=             79.7925   XZ=            410.2815   YZ=             93.6367

 Normal termination of Gaussian 16 at Tue Jun  7 01:06:58 2022.
