 Gaussian 16, Revision C.01,
 Gaussian 16:  ES64L-G16RevC.01  3-Jul-2019

 ----------------------------------------------------------------------
 # B3LYP/6-31G* empiricaldispersion=gd3 guess=read geom=check nosymm in
 tegral(ultrafinegrid)
 ----------------------------------------------------------------------

 ------------------------------------------------------
 Candidate Structure: Conf:472 Charge calc in gas phase
 ------------------------------------------------------
 Structure from the checkpoint file:  "conf-472.chk"
 Charge =  1 Multiplicity = 1

                          Input orientation:
 ---------------------------------------------------------------------
 Center     Atomic      Atomic             Coordinates (Angstroms)
 Number     Number       Type             X           Y           Z
 ---------------------------------------------------------------------
      1          7           0       -5.839441   -0.808616  -10.502366
      2          6           0       -4.961713   -1.867090  -10.080884
      3          6           0       -5.778441   -3.131849   -9.728008
      4          8           0       -5.631878   -4.171460  -10.351051
      5          6           0       -4.009471   -1.552896   -8.837209
      6          6           0       -3.017672   -0.522271   -9.189503
      7          7           0       -3.229436    0.750129   -8.955390
      8          8           0       -1.950226   -0.958548   -9.822979
      9          1           0       -5.369201   -0.050310  -10.985093
     10          1           0       -1.326582   -0.260027  -10.096515
     11          1           0       -4.332120   -2.167696  -10.920791
     12          1           0       -4.615707   -1.209236   -7.999250
     13          1           0       -3.484822   -2.466831   -8.547460
     14          1           0       -2.568917    1.474371   -9.219655
     15          1           0       -4.092054    1.032040   -8.449422
     16          1           0       -6.416997   -0.438785   -9.753835
     17          7           0       -6.635631   -2.996996   -8.680158
     18          6           0       -7.432504   -4.121468   -8.176867
     19          6           0       -8.407312   -3.572375   -7.114501
     20          8           0       -8.437527   -4.037033   -5.978946
     21          6           0       -6.574964   -5.301005   -7.642527
     22          6           0       -5.362025   -4.899462   -6.829616
     23          6           0       -4.106667   -4.799058   -7.447994
     24          6           0       -5.448187   -4.635604   -5.455193
     25          6           0       -2.977190   -4.410306   -6.721966
     26          6           0       -4.324009   -4.235834   -4.728919
     27          6           0       -3.084895   -4.111423   -5.361883
     28          1           0       -6.726834   -2.103151   -8.215382
     29          1           0       -8.020086   -4.515363   -9.017806
     30          1           0       -7.240214   -5.937138   -7.052355
     31          1           0       -6.248230   -5.870324   -8.514938
     32          1           0       -4.017389   -5.040414   -8.504213
     33          1           0       -6.402876   -4.771054   -4.958263
     34          1           0       -2.008906   -4.362736   -7.215406
     35          1           0       -4.412808   -4.041407   -3.663311
     36          1           0       -2.207206   -3.816281   -4.793394
     37          7           0       -9.193102   -2.507421   -7.467644
     38          6           0       -9.551681   -2.052135   -8.804940
     39          6           0       -9.088823   -0.621423   -9.140264
     40          8           0       -9.419243   -0.105602  -10.197243
     41          6           0      -11.067857   -2.148741   -9.048507
     42          6           0      -11.828271   -1.203704   -8.118544
     43          7           0      -13.165509   -1.385313   -8.049913
     44          8           0      -11.242189   -0.324128   -7.485287
     45          1           0       -9.724361   -2.114870   -6.685583
     46          1           0       -9.056989   -2.688166   -9.541720
     47          1           0      -11.400214   -3.184086   -8.915327
     48          1           0      -11.270629   -1.856186  -10.084533
     49          1           0      -13.709314   -0.771718   -7.458124
     50          1           0      -13.645249   -2.109188   -8.564440
     51          7           0       -8.234088   -0.012941   -8.246634
     52          6           0       -8.048489    1.418182   -8.376759
     53          6           0       -6.612716    1.785206   -8.040681
     54          8           0       -5.722540    0.966231   -7.851000
     55          6           0       -9.112433    2.274763   -7.634812
     56          6           0       -8.980480    2.438675   -6.109043
     57          6           0       -9.202984    1.178606   -5.266475
     58          7           0       -8.043183    0.276658   -5.347302
     59          6           0       -8.183125   -1.021252   -4.816579
     60          7           0       -9.352305   -1.495763   -4.589065
     61          7           0       -6.958921   -1.655440   -4.627953
     62          8           0       -6.298863    3.085100   -8.018164
     63          1           0       -7.088198    3.639048   -8.155827
     64          1           0       -8.231301   -0.327168   -7.275949
     65          1           0       -8.166834    1.630806   -9.449904
     66          1           0       -9.129818    3.275502   -8.094511
     67          1           0      -10.079110    1.823258   -7.876955
     68          1           0       -8.009231    2.892261   -5.854798
     69          1           0       -9.734786    3.172565   -5.802047
     70          1           0       -9.398474    1.458233   -4.222529
     71          1           0      -10.075347    0.627857   -5.620060
     72          1           0       -7.189252    0.723650   -5.022541
     73          1           0       -9.296934   -2.479071   -4.323716
     74          1           0       -7.019235   -2.665767   -4.595702
     75          1           0       -6.198949   -1.352615   -5.226778
 ---------------------------------------------------------------------

 SCF Done:  E(RB3LYP) =  -1917.43304532     A.U. after    2 cycles

 Alpha  occ. eigenvalues --  -19.38884 -19.33793 -19.28711 -19.21635 -19.21591
 Alpha  occ. eigenvalues --  -19.21517 -19.21279 -14.55535 -14.46575 -14.45644
 Alpha  occ. eigenvalues --  -14.45454 -14.45205 -14.44049 -14.43612 -14.42862
 Alpha  occ. eigenvalues --  -14.36428 -10.50107 -10.46438 -10.39030 -10.38973
 Alpha  occ. eigenvalues --  -10.38863 -10.38807 -10.36436 -10.35598 -10.35545
 Alpha  occ. eigenvalues --  -10.34040 -10.33927 -10.33372 -10.30079 -10.29604
 Alpha  occ. eigenvalues --  -10.29561 -10.28799 -10.27498 -10.27022 -10.26821
 Alpha  occ. eigenvalues --  -10.26790 -10.26751 -10.26559 -10.26307  -1.28589
 Alpha  occ. eigenvalues --   -1.24787  -1.16299  -1.14125  -1.13819  -1.13244
 Alpha  occ. eigenvalues --   -1.12788  -1.11849  -1.06157  -1.03807  -1.02950
 Alpha  occ. eigenvalues --   -1.01851  -1.00802  -1.00012  -0.97265  -0.93280
 Alpha  occ. eigenvalues --   -0.92581  -0.92447  -0.90111  -0.87905  -0.87094
 Alpha  occ. eigenvalues --   -0.84372  -0.83376  -0.82129  -0.81545  -0.78268
 Alpha  occ. eigenvalues --   -0.78095  -0.77613  -0.76566  -0.75206  -0.74851
 Alpha  occ. eigenvalues --   -0.71845  -0.70290  -0.69408  -0.69080  -0.68656
 Alpha  occ. eigenvalues --   -0.68220  -0.67681  -0.67274  -0.66385  -0.65979
 Alpha  occ. eigenvalues --   -0.64393  -0.63052  -0.62565  -0.62160  -0.61614
 Alpha  occ. eigenvalues --   -0.61128  -0.60843  -0.60170  -0.59955  -0.59264
 Alpha  occ. eigenvalues --   -0.59017  -0.58438  -0.57222  -0.56913  -0.56577
 Alpha  occ. eigenvalues --   -0.56279  -0.55949  -0.55500  -0.55005  -0.54311
 Alpha  occ. eigenvalues --   -0.54004  -0.53775  -0.53422  -0.53297  -0.53056
 Alpha  occ. eigenvalues --   -0.52733  -0.51736  -0.51357  -0.51079  -0.50439
 Alpha  occ. eigenvalues --   -0.50154  -0.50003  -0.49580  -0.49295  -0.48978
 Alpha  occ. eigenvalues --   -0.48673  -0.48516  -0.48313  -0.47310  -0.46905
 Alpha  occ. eigenvalues --   -0.46563  -0.46413  -0.46099  -0.45946  -0.44903
 Alpha  occ. eigenvalues --   -0.44487  -0.43636  -0.43522  -0.43377  -0.41890
 Alpha  occ. eigenvalues --   -0.41522  -0.41177  -0.37899  -0.36989  -0.36812
 Alpha  occ. eigenvalues --   -0.36331  -0.35834  -0.35435  -0.35154  -0.34564
 Alpha  occ. eigenvalues --   -0.34325  -0.33903  -0.33653  -0.32842  -0.32200
 Alpha  occ. eigenvalues --   -0.31270
 Alpha virt. eigenvalues --   -0.18561  -0.13666  -0.11143  -0.09050  -0.08603
 Alpha virt. eigenvalues --   -0.08362  -0.07877  -0.07347  -0.06957  -0.06611
 Alpha virt. eigenvalues --   -0.05854  -0.04744  -0.03271  -0.02259  -0.00807

 Mulliken charges:
               1
     1  N   -0.723398
     2  C   -0.102445
     3  C    0.660877
     4  O   -0.496346
     5  C   -0.381556
     6  C    0.604183
     7  N   -0.721179
     8  O   -0.509546
     9  H    0.309197
    10  H    0.449269
    11  H    0.201296
    12  H    0.204908
    13  H    0.231256
    14  H    0.376504
    15  H    0.442322
    16  H    0.349350
    17  N   -0.640511
    18  C   -0.023091
    19  C    0.568378
    20  O   -0.509168
    21  C   -0.367538
    22  C    0.155986
    23  C   -0.211668
    24  C   -0.211558
    25  C   -0.148283
    26  C   -0.136132
    27  C   -0.134892
    28  H    0.342734
    29  H    0.187429
    30  H    0.184357
    31  H    0.186474
    32  H    0.159657
    33  H    0.170412
    34  H    0.135121
    35  H    0.149127
    36  H    0.141788
    37  N   -0.649811
    38  C   -0.066029
    39  C    0.650267
    40  O   -0.516655
    41  C   -0.375015
    42  C    0.628946
    43  N   -0.745522
    44  O   -0.526175
    45  H    0.389406
    46  H    0.204056
    47  H    0.178599
    48  H    0.220183
    49  H    0.361800
    50  H    0.357438
    51  N   -0.661967
    52  C   -0.104211
    53  C    0.636771
    54  O   -0.517208
    55  C   -0.315745
    56  C   -0.293742
    57  C   -0.137256
    58  N   -0.659145
    59  C    0.589114
    60  N   -0.658790
    61  N   -0.764269
    62  O   -0.552778
    63  H    0.444201
    64  H    0.408240
    65  H    0.223737
    66  H    0.136167
    67  H    0.226378
    68  H    0.125037
    69  H    0.173084
    70  H    0.164951
    71  H    0.231674
    72  H    0.320390
    73  H    0.307668
    74  H    0.360428
    75  H    0.312467
 Sum of Mulliken charges =   1.00000

 Dipole moment (field-independent basis, Debye):
    X=            -27.0123    Y=              3.3017    Z=            -41.0939  Tot=             49.2877
 Quadrupole moment (field-independent basis, Debye-Ang):
   XX=             33.3619   YY=           -203.8588   ZZ=            121.5707
   XY=             -3.4260   XZ=            222.6752   YZ=            -29.9150

 Normal termination of Gaussian 16 at Tue Jun  7 01:06:35 2022.
