 Gaussian 16, Revision C.01,
 Gaussian 16:  ES64L-G16RevC.01  3-Jul-2019

 ----------------------------------------------------------------------
 # B3LYP/6-31G* empiricaldispersion=gd3 guess=read geom=check nosymm in
 tegral(ultrafinegrid)
 ----------------------------------------------------------------------

 ------------------------------------------------------
 Candidate Structure: Conf:123 Charge calc in gas phase
 ------------------------------------------------------
 Structure from the checkpoint file:  "conf-123.chk"
 Charge =  1 Multiplicity = 1

                          Input orientation:
 ---------------------------------------------------------------------
 Center     Atomic      Atomic             Coordinates (Angstroms)
 Number     Number       Type             X           Y           Z
 ---------------------------------------------------------------------
      1          7           0       -7.635350    1.127343   -8.799458
      2          6           0       -8.005449    1.322706   -7.394231
      3          6           0       -7.164662    0.437284   -6.443957
      4          8           0       -6.437369    0.953198   -5.605211
      5          6           0       -9.528543    0.987735   -7.130525
      6          6           0      -10.386376    1.277861   -8.300869
      7          7           0      -10.529964    0.398204   -9.254460
      8          8           0      -10.956363    2.463441   -8.329526
      9          1           0       -7.757827    2.006405   -9.300910
     10          1           0      -11.497034    2.628981   -9.124956
     11          1           0       -7.828940    2.344774   -7.044242
     12          1           0       -9.637209   -0.071013   -6.894975
     13          1           0       -9.887022    1.548013   -6.264754
     14          1           0      -11.061391    0.577847  -10.100325
     15          1           0       -9.974769   -0.480197   -9.215660
     16          1           0       -6.638767    0.903538   -8.869985
     17          7           0       -7.319546   -0.912285   -6.580306
     18          6           0       -6.947116   -1.823907   -5.499215
     19          6           0       -6.166423   -3.055486   -6.010646
     20          8           0       -6.585414   -4.193937   -5.793997
     21          6           0       -8.185916   -2.294987   -4.700205
     22          6           0       -9.173269   -1.197922   -4.362758
     23          6           0       -8.782220   -0.015342   -3.717485
     24          6           0      -10.526112   -1.356012   -4.697270
     25          6           0       -9.714611    0.982735   -3.429128
     26          6           0      -11.464694   -0.363929   -4.402767
     27          6           0      -11.059960    0.813282   -3.770370
     28          1           0       -7.847442   -1.281569   -7.368688
     29          1           0       -6.281791   -1.248306   -4.848455
     30          1           0       -8.695345   -3.071232   -5.277914
     31          1           0       -7.828303   -2.794733   -3.792224
     32          1           0       -7.740116    0.141173   -3.457475
     33          1           0      -10.850383   -2.274438   -5.182628
     34          1           0       -9.389478    1.890656   -2.928796
     35          1           0      -12.510352   -0.516318   -4.657245
     36          1           0      -11.786171    1.585344   -3.531554
     37          7           0       -4.994369   -2.859468   -6.676885
     38          6           0       -4.490729   -1.612411   -7.230288
     39          6           0       -5.160137   -1.200202   -8.554317
     40          8           0       -4.981944   -0.053309   -8.977228
     41          6           0       -2.962746   -1.640815   -7.395786
     42          6           0       -2.501938   -2.716921   -8.380785
     43          7           0       -1.179846   -2.712388   -8.673880
     44          8           0       -3.287261   -3.530524   -8.866662
     45          1           0       -4.597738   -3.703523   -7.082657
     46          1           0       -4.718687   -0.793861   -6.542525
     47          1           0       -2.495640   -1.813321   -6.418814
     48          1           0       -2.641217   -0.653586   -7.745171
     49          1           0       -0.817880   -3.431065   -9.286102
     50          1           0       -0.532296   -2.053386   -8.267333
     51          7           0       -5.963498   -2.108301   -9.156788
     52          6           0       -6.669634   -1.793192  -10.373546
     53          6           0       -8.182129   -1.849035  -10.151292
     54          8           0       -8.738585   -1.743707   -9.059657
     55          6           0       -6.104683   -2.555847  -11.599121
     56          6           0       -5.925938   -4.072353  -11.455739
     57          6           0       -7.214423   -4.885822  -11.299400
     58          7           0       -8.057474   -4.450534  -10.171778
     59          6           0       -7.678166   -4.810961   -8.867655
     60          7           0       -6.469665   -5.184183   -8.639948
     61          7           0       -8.714802   -4.694849   -7.948250
     62          8           0       -8.961645   -1.747207  -11.242073
     63          1           0       -8.435043   -1.870935  -12.050997
     64          1           0       -5.916792   -3.087618   -8.872278
     65          1           0       -6.497398   -0.722040  -10.550344
     66          1           0       -6.699668   -2.324832  -12.499637
     67          1           0       -5.122624   -2.110638  -11.790229
     68          1           0       -5.420187   -4.432679  -12.360204
     69          1           0       -5.254546   -4.287967  -10.621415
     70          1           0       -7.832597   -4.775524  -12.199146
     71          1           0       -6.952365   -5.945555  -11.194795
     72          1           0       -9.043348   -4.625722  -10.335584
     73          1           0       -6.331255   -5.351602   -7.642633
     74          1           0       -8.389763   -4.711025   -6.985833
     75          1           0       -9.354550   -3.927945   -8.126575
 ---------------------------------------------------------------------

 SCF Done:  E(RB3LYP) =  -1917.44898483     A.U. after    2 cycles

 Alpha  occ. eigenvalues --  -19.38416 -19.32570 -19.27122 -19.21796 -19.21743
 Alpha  occ. eigenvalues --  -19.21335 -19.20797 -14.54600 -14.45613 -14.45477
 Alpha  occ. eigenvalues --  -14.45165 -14.44813 -14.44148 -14.42818 -14.42523
 Alpha  occ. eigenvalues --  -14.36495 -10.49428 -10.45560 -10.38923 -10.38848
 Alpha  occ. eigenvalues --  -10.38634 -10.38513 -10.36518 -10.34989 -10.34886
 Alpha  occ. eigenvalues --  -10.33457 -10.33013 -10.33001 -10.30483 -10.30050
 Alpha  occ. eigenvalues --  -10.29587 -10.28345 -10.27790 -10.27591 -10.27485
 Alpha  occ. eigenvalues --  -10.27386 -10.27330 -10.27036 -10.26768  -1.28037
 Alpha  occ. eigenvalues --   -1.23474  -1.14780  -1.13976  -1.13545  -1.13031
 Alpha  occ. eigenvalues --   -1.12469  -1.11098  -1.06181  -1.03464  -1.02551
 Alpha  occ. eigenvalues --   -1.01450  -1.00090  -0.99611  -0.97238  -0.94013
 Alpha  occ. eigenvalues --   -0.92401  -0.91687  -0.89620  -0.87817  -0.87274
 Alpha  occ. eigenvalues --   -0.83959  -0.83421  -0.82773  -0.81442  -0.77917
 Alpha  occ. eigenvalues --   -0.77260  -0.76952  -0.75942  -0.74875  -0.74288
 Alpha  occ. eigenvalues --   -0.70895  -0.70453  -0.69505  -0.69109  -0.68543
 Alpha  occ. eigenvalues --   -0.67810  -0.67537  -0.66676  -0.66421  -0.65145
 Alpha  occ. eigenvalues --   -0.64324  -0.62804  -0.62517  -0.62088  -0.61268
 Alpha  occ. eigenvalues --   -0.60474  -0.59982  -0.59808  -0.59385  -0.58838
 Alpha  occ. eigenvalues --   -0.58684  -0.58285  -0.57372  -0.56519  -0.56433
 Alpha  occ. eigenvalues --   -0.55643  -0.55074  -0.54955  -0.54320  -0.54297
 Alpha  occ. eigenvalues --   -0.53934  -0.53547  -0.53181  -0.52971  -0.52604
 Alpha  occ. eigenvalues --   -0.52114  -0.51397  -0.51085  -0.51013  -0.50540
 Alpha  occ. eigenvalues --   -0.50215  -0.50080  -0.49883  -0.49430  -0.48987
 Alpha  occ. eigenvalues --   -0.48657  -0.48113  -0.47757  -0.47327  -0.46788
 Alpha  occ. eigenvalues --   -0.46200  -0.46052  -0.45414  -0.45272  -0.44718
 Alpha  occ. eigenvalues --   -0.44113  -0.43814  -0.43732  -0.42527  -0.42269
 Alpha  occ. eigenvalues --   -0.41949  -0.41141  -0.38285  -0.37005  -0.36477
 Alpha  occ. eigenvalues --   -0.36153  -0.35831  -0.35079  -0.34838  -0.34747
 Alpha  occ. eigenvalues --   -0.34205  -0.33773  -0.33511  -0.33349  -0.32793
 Alpha  occ. eigenvalues --   -0.31392
 Alpha virt. eigenvalues --   -0.17829  -0.12126  -0.10476  -0.09193  -0.09010
 Alpha virt. eigenvalues --   -0.08625  -0.08290  -0.07978  -0.06426  -0.06126
 Alpha virt. eigenvalues --   -0.04963  -0.03920  -0.01743  -0.01279  -0.00590

 Mulliken charges:
               1
     1  N   -0.817283
     2  C   -0.042148
     3  C    0.604058
     4  O   -0.510300
     5  C   -0.375985
     6  C    0.606635
     7  N   -0.701160
     8  O   -0.513425
     9  H    0.309303
    10  H    0.445621
    11  H    0.185862
    12  H    0.210778
    13  H    0.227566
    14  H    0.371937
    15  H    0.455568
    16  H    0.390195
    17  N   -0.644532
    18  C   -0.079544
    19  C    0.618065
    20  O   -0.527313
    21  C   -0.354622
    22  C    0.169116
    23  C   -0.181286
    24  C   -0.211538
    25  C   -0.143557
    26  C   -0.132606
    27  C   -0.144468
    28  H    0.393972
    29  H    0.209173
    30  H    0.148984
    31  H    0.190781
    32  H    0.161041
    33  H    0.129564
    34  H    0.154052
    35  H    0.141156
    36  H    0.147102
    37  N   -0.620564
    38  C   -0.058847
    39  C    0.653775
    40  O   -0.565752
    41  C   -0.392309
    42  C    0.606083
    43  N   -0.741715
    44  O   -0.520270
    45  H    0.372844
    46  H    0.209119
    47  H    0.197244
    48  H    0.205797
    49  H    0.360728
    50  H    0.355147
    51  N   -0.620705
    52  C   -0.088145
    53  C    0.718382
    54  O   -0.552243
    55  C   -0.298112
    56  C   -0.293932
    57  C   -0.124237
    58  N   -0.638853
    59  C    0.582101
    60  N   -0.678167
    61  N   -0.780279
    62  O   -0.589355
    63  H    0.433323
    64  H    0.409349
    65  H    0.210238
    66  H    0.115296
    67  H    0.188532
    68  H    0.157502
    69  H    0.231094
    70  H    0.131753
    71  H    0.184837
    72  H    0.334321
    73  H    0.318817
    74  H    0.370433
    75  H    0.326007
 Sum of Mulliken charges =   1.00000

 Dipole moment (field-independent basis, Debye):
    X=            -40.7168    Y=              0.0667    Z=            -45.8507  Tot=             61.3201
 Quadrupole moment (field-independent basis, Debye-Ang):
   XX=            210.0991   YY=           -216.1517   ZZ=            239.0466
   XY=            -28.3303   XZ=            392.3305   YZ=             10.1536

 Normal termination of Gaussian 16 at Tue Jun  7 01:06:39 2022.
