 Gaussian 16, Revision C.01,
 Gaussian 16:  ES64L-G16RevC.01  3-Jul-2019

 ----------------------------------------------------------------------
 # B3LYP/6-31G* empiricaldispersion=gd3 guess=read geom=check nosymm in
 tegral(ultrafinegrid)
 ----------------------------------------------------------------------

 ------------------------------------------------------
 Candidate Structure: Conf:962 Charge calc in gas phase
 ------------------------------------------------------
 Structure from the checkpoint file:  "conf-962.chk"
 Charge =  1 Multiplicity = 1

                          Input orientation:
 ---------------------------------------------------------------------
 Center     Atomic      Atomic             Coordinates (Angstroms)
 Number     Number       Type             X           Y           Z
 ---------------------------------------------------------------------
      1          7           0       -6.912015    2.132913   -8.081173
      2          6           0       -6.713332    1.110972   -7.057212
      3          6           0       -5.902064   -0.103522   -7.544519
      4          8           0       -5.030232    0.073874   -8.388592
      5          6           0       -8.085075    0.772442   -6.410039
      6          6           0       -8.865929    2.045414   -6.373042
      7          7           0       -9.898257    2.233980   -7.143947
      8          8           0       -8.445998    2.922870   -5.491313
      9          1           0       -7.389334    1.718075   -8.882803
     10          1           0       -8.878719    3.793593   -5.563945
     11          1           0       -6.090408    1.551943   -6.268315
     12          1           0       -8.639577    0.018717   -6.971916
     13          1           0       -7.942146    0.416578   -5.385015
     14          1           0      -10.395250    3.118713   -7.174786
     15          1           0      -10.162056    1.487874   -7.834628
     16          1           0       -5.995809    2.419368   -8.422696
     17          7           0       -6.140052   -1.313564   -6.960805
     18          6           0       -5.068058   -2.308749   -6.865084
     19          6           0       -5.650775   -3.677136   -7.253143
     20          8           0       -5.880305   -4.535057   -6.394707
     21          6           0       -4.445686   -2.319532   -5.443942
     22          6           0       -4.318129   -0.915057   -4.898831
     23          6           0       -3.341340   -0.036170   -5.383617
     24          6           0       -5.253849   -0.430187   -3.974012
     25          6           0       -3.305548    1.294500   -4.963692
     26          6           0       -5.222021    0.899490   -3.547669
     27          6           0       -4.248622    1.768567   -4.047658
     28          1           0       -6.861742   -1.409348   -6.250572
     29          1           0       -4.306759   -1.998438   -7.582985
     30          1           0       -5.066688   -2.932425   -4.785884
     31          1           0       -3.472558   -2.819793   -5.501804
     32          1           0       -2.613453   -0.391155   -6.108804
     33          1           0       -6.011831   -1.105479   -3.581466
     34          1           0       -2.540124    1.960959   -5.350858
     35          1           0       -5.947134    1.253448   -2.819315
     36          1           0       -4.215346    2.802280   -3.715349
     37          7           0       -5.979008   -3.877984   -8.554377
     38          6           0       -5.887582   -2.945754   -9.662272
     39          6           0       -7.187126   -2.214575  -10.024677
     40          8           0       -7.091866   -1.336690  -10.913698
     41          6           0       -5.326891   -3.628664  -10.925117
     42          6           0       -6.246131   -4.746775  -11.420356
     43          7           0       -5.923179   -5.281461  -12.621633
     44          8           0       -7.208723   -5.132680  -10.757529
     45          1           0       -6.459920   -4.748347   -8.767324
     46          1           0       -5.204700   -2.133702   -9.404302
     47          1           0       -4.338950   -4.044585  -10.694647
     48          1           0       -5.196317   -2.870829  -11.703963
     49          1           0       -6.484859   -6.042363  -12.979270
     50          1           0       -5.148795   -4.949769  -13.177493
     51          7           0       -8.346443   -2.477364   -9.402622
     52          6           0       -9.589581   -1.877063   -9.927070
     53          6           0       -9.639562   -0.414846   -9.444455
     54          8           0      -10.444207    0.034171   -8.631528
     55          6           0      -10.853432   -2.742902   -9.713716
     56          6           0      -11.778259   -2.577895   -8.490824
     57          6           0      -11.324167   -3.178406   -7.159972
     58          7           0      -10.134903   -2.571460   -6.545413
     59          6           0       -9.007695   -3.335186   -6.339894
     60          7           0       -8.728376   -4.282496   -7.166984
     61          7           0       -8.191376   -2.899753   -5.271171
     62          8           0       -8.694096    0.370482   -9.938319
     63          1           0       -8.045947   -0.183207  -10.507928
     64          1           0       -8.428414   -3.245821   -8.712244
     65          1           0       -9.440298   -1.810575  -11.012404
     66          1           0      -11.478086   -2.551852  -10.593839
     67          1           0      -10.529770   -3.787329   -9.799106
     68          1           0      -12.047622   -1.529191   -8.360591
     69          1           0      -12.706855   -3.105681   -8.747347
     70          1           0      -12.154344   -3.100455   -6.445888
     71          1           0      -11.097494   -4.239006   -7.292593
     72          1           0      -10.300259   -1.821335   -5.889558
     73          1           0       -7.925481   -4.825764   -6.853158
     74          1           0       -7.401431   -3.530061   -5.136896
     75          1           0       -8.694071   -2.762221   -4.397544
 ---------------------------------------------------------------------

 SCF Done:  E(RB3LYP) =  -1917.46294564     A.U. after    1 cycles

 Alpha  occ. eigenvalues --  -19.37341 -19.29367 -19.26333 -19.23188 -19.21841
 Alpha  occ. eigenvalues --  -19.21566 -19.20650 -14.53519 -14.46259 -14.45923
 Alpha  occ. eigenvalues --  -14.45495 -14.45387 -14.44975 -14.44714 -14.41999
 Alpha  occ. eigenvalues --  -14.38010 -10.49156 -10.43915 -10.39674 -10.38833
 Alpha  occ. eigenvalues --  -10.38805 -10.38397 -10.38366 -10.34573 -10.34356
 Alpha  occ. eigenvalues --  -10.34034 -10.33863 -10.33140 -10.30376 -10.29524
 Alpha  occ. eigenvalues --  -10.28457 -10.28437 -10.28038 -10.27888 -10.27781
 Alpha  occ. eigenvalues --  -10.27556 -10.27489 -10.27324 -10.26838  -1.27205
 Alpha  occ. eigenvalues --   -1.21567  -1.15029  -1.13955  -1.13255  -1.12666
 Alpha  occ. eigenvalues --   -1.12330  -1.10217  -1.07674  -1.03371  -1.02685
 Alpha  occ. eigenvalues --   -1.01678  -1.00185  -0.99501  -0.98674  -0.94199
 Alpha  occ. eigenvalues --   -0.93997  -0.91436  -0.89048  -0.87935  -0.87423
 Alpha  occ. eigenvalues --   -0.83723  -0.83413  -0.83005  -0.80927  -0.78118
 Alpha  occ. eigenvalues --   -0.77044  -0.76568  -0.75447  -0.74671  -0.72239
 Alpha  occ. eigenvalues --   -0.70445  -0.70214  -0.69429  -0.69295  -0.68899
 Alpha  occ. eigenvalues --   -0.68182  -0.67914  -0.67364  -0.66933  -0.64580
 Alpha  occ. eigenvalues --   -0.64138  -0.63550  -0.63042  -0.62377  -0.62106
 Alpha  occ. eigenvalues --   -0.61403  -0.60292  -0.59667  -0.59385  -0.58633
 Alpha  occ. eigenvalues --   -0.58156  -0.57301  -0.56984  -0.56545  -0.56075
 Alpha  occ. eigenvalues --   -0.55738  -0.55453  -0.55001  -0.54699  -0.54333
 Alpha  occ. eigenvalues --   -0.54058  -0.53739  -0.53608  -0.53388  -0.52899
 Alpha  occ. eigenvalues --   -0.52121  -0.51378  -0.51057  -0.50880  -0.50568
 Alpha  occ. eigenvalues --   -0.50196  -0.50062  -0.49486  -0.49206  -0.48809
 Alpha  occ. eigenvalues --   -0.48543  -0.48329  -0.47421  -0.47379  -0.46841
 Alpha  occ. eigenvalues --   -0.46612  -0.45664  -0.45646  -0.44709  -0.43971
 Alpha  occ. eigenvalues --   -0.43888  -0.43749  -0.43264  -0.42922  -0.42464
 Alpha  occ. eigenvalues --   -0.42343  -0.39850  -0.38957  -0.37741  -0.36972
 Alpha  occ. eigenvalues --   -0.36664  -0.36238  -0.35842  -0.35740  -0.35124
 Alpha  occ. eigenvalues --   -0.34730  -0.34307  -0.34028  -0.33502  -0.32988
 Alpha  occ. eigenvalues --   -0.32406
 Alpha virt. eigenvalues --   -0.16504  -0.11628  -0.09699  -0.09163  -0.09026
 Alpha virt. eigenvalues --   -0.08918  -0.08453  -0.08182  -0.06362  -0.05672
 Alpha virt. eigenvalues --   -0.04572  -0.04066  -0.01410  -0.00513  -0.00337

 Mulliken charges:
               1
     1  N   -0.760321
     2  C   -0.076879
     3  C    0.616171
     4  O   -0.523521
     5  C   -0.411968
     6  C    0.649281
     7  N   -0.715798
     8  O   -0.513401
     9  H    0.343074
    10  H    0.447896
    11  H    0.217718
    12  H    0.211499
    13  H    0.207379
    14  H    0.371866
    15  H    0.447934
    16  H    0.339764
    17  N   -0.642105
    18  C   -0.081738
    19  C    0.635173
    20  O   -0.540324
    21  C   -0.373642
    22  C    0.165548
    23  C   -0.169607
    24  C   -0.201810
    25  C   -0.130160
    26  C   -0.139294
    27  C   -0.139390
    28  H    0.389794
    29  H    0.202241
    30  H    0.170698
    31  H    0.179721
    32  H    0.145850
    33  H    0.120577
    34  H    0.153404
    35  H    0.137408
    36  H    0.146495
    37  N   -0.612838
    38  C   -0.067746
    39  C    0.662175
    40  O   -0.598779
    41  C   -0.384312
    42  C    0.611860
    43  N   -0.742557
    44  O   -0.524924
    45  H    0.375150
    46  H    0.218949
    47  H    0.193845
    48  H    0.207101
    49  H    0.360999
    50  H    0.354640
    51  N   -0.639231
    52  C   -0.073683
    53  C    0.659807
    54  O   -0.522885
    55  C   -0.311972
    56  C   -0.263428
    57  C   -0.147360
    58  N   -0.577636
    59  C    0.584347
    60  N   -0.701889
    61  N   -0.819781
    62  O   -0.599071
    63  H    0.475634
    64  H    0.435384
    65  H    0.198702
    66  H    0.166144
    67  H    0.190181
    68  H    0.167177
    69  H    0.152814
    70  H    0.149747
    71  H    0.200177
    72  H    0.313768
    73  H    0.326177
    74  H    0.372534
    75  H    0.331247
 Sum of Mulliken charges =   1.00000

 Dipole moment (field-independent basis, Debye):
    X=            -40.0512    Y=              0.4392    Z=            -35.6066  Tot=             53.5922
 Quadrupole moment (field-independent basis, Debye-Ang):
   XX=            147.8428   YY=           -175.9343   ZZ=             91.6323
   XY=            -23.9841   XZ=            278.3853   YZ=             36.3335

 Normal termination of Gaussian 16 at Tue Jun  7 01:06:06 2022.
