 Gaussian 16, Revision C.01,
 Gaussian 16:  ES64L-G16RevC.01  3-Jul-2019

 ----------------------------------------------------------------------
 # B3LYP/6-31G* empiricaldispersion=gd3 guess=read geom=check nosymm in
 tegral(ultrafinegrid)
 ----------------------------------------------------------------------

 ------------------------------------------------------
 Candidate Structure: Conf:883 Charge calc in gas phase
 ------------------------------------------------------
 Structure from the checkpoint file:  "conf-883.chk"
 Charge =  1 Multiplicity = 1

                          Input orientation:
 ---------------------------------------------------------------------
 Center     Atomic      Atomic             Coordinates (Angstroms)
 Number     Number       Type             X           Y           Z
 ---------------------------------------------------------------------
      1          7           0       -8.276941   -3.881824   -8.907184
      2          6           0       -9.460661   -3.229662   -8.404427
      3          6           0       -9.165325   -2.425006   -7.123063
      4          8           0      -10.076988   -2.118002   -6.359092
      5          6           0      -10.690641   -4.149069   -7.975502
      6          6           0      -10.836763   -5.298885   -8.879483
      7          7           0      -10.254795   -6.443141   -8.597318
      8          8           0      -11.498415   -5.101396   -9.992197
      9          1           0       -8.340881   -4.184269   -9.872496
     10          1           0      -11.557582   -5.876476  -10.583066
     11          1           0       -9.803140   -2.516461   -9.158441
     12          1           0      -10.524506   -4.508498   -6.957144
     13          1           0      -11.598070   -3.543527   -7.984149
     14          1           0      -10.294170   -7.258984   -9.200514
     15          1           0       -9.741687   -6.533335   -7.714214
     16          1           0       -7.921854   -4.623903   -8.310120
     17          7           0       -7.861676   -2.152117   -6.900902
     18          6           0       -7.409381   -1.723439   -5.587220
     19          6           0       -6.516534   -0.467834   -5.654148
     20          8           0       -5.405113   -0.473956   -5.125950
     21          6           0       -6.677690   -2.894038   -4.882453
     22          6           0       -7.396415   -4.210421   -5.102487
     23          6           0       -8.653881   -4.460557   -4.529481
     24          6           0       -6.841415   -5.194245   -5.933634
     25          6           0       -9.327061   -5.659931   -4.766055
     26          6           0       -7.504994   -6.402839   -6.173828
     27          6           0       -8.753638   -6.642633   -5.585855
     28          1           0       -7.177682   -2.417119   -7.604663
     29          1           0       -8.317824   -1.466589   -5.033169
     30          1           0       -5.656126   -2.949676   -5.269293
     31          1           0       -6.588772   -2.664100   -3.815742
     32          1           0       -9.112539   -3.706604   -3.896537
     33          1           0       -5.865842   -5.021239   -6.381687
     34          1           0      -10.286490   -5.840804   -4.289248
     35          1           0       -7.027381   -7.169262   -6.779810
     36          1           0       -9.239141   -7.611119   -5.696901
     37          7           0       -7.006672    0.646613   -6.274129
     38          6           0       -8.190196    0.753832   -7.129571
     39          6           0       -8.007714    0.109127   -8.523686
     40          8           0       -8.989689   -0.249031   -9.173399
     41          6           0       -8.616855    2.233325   -7.272544
     42          6           0       -7.491695    3.045746   -7.911358
     43          7           0       -6.824726    3.900675   -7.090550
     44          8           0       -7.188325    2.876807   -9.088354
     45          1           0       -6.274059    1.346297   -6.422747
     46          1           0       -9.023485    0.217809   -6.669003
     47          1           0       -8.913075    2.618747   -6.291480
     48          1           0       -9.482396    2.264770   -7.939294
     49          1           0       -5.912331    4.211604   -7.401635
     50          1           0       -6.992871    3.905518   -6.094969
     51          7           0       -6.726691   -0.086540   -8.906738
     52          6           0       -6.377679   -0.653990  -10.188515
     53          6           0       -5.323701   -1.739078  -10.035102
     54          8           0       -4.596149   -2.132297  -10.916270
     55          6           0       -6.024131    0.400325  -11.265637
     56          6           0       -4.623822    1.040205  -11.238611
     57          6           0       -4.181635    1.668377   -9.912198
     58          7           0       -3.807092    0.609532   -8.963222
     59          6           0       -3.731235    0.836325   -7.597115
     60          7           0       -4.308946    1.864214   -7.060261
     61          7           0       -3.022993   -0.144090   -6.907459
     62          8           0       -5.297658   -2.311301   -8.786246
     63          1           0       -4.640257   -3.029364   -8.855545
     64          1           0       -5.984662    0.363345   -8.391354
     65          1           0       -7.285484   -1.171126  -10.526557
     66          1           0       -6.157483   -0.070481  -12.245869
     67          1           0       -6.786455    1.179764  -11.166337
     68          1           0       -3.878306    0.301388  -11.560254
     69          1           0       -4.617758    1.828102  -12.000893
     70          1           0       -3.331828    2.345307  -10.077247
     71          1           0       -4.988362    2.257473   -9.473801
     72          1           0       -3.073904    0.005294   -9.318740
     73          1           0       -4.173641    1.825638   -6.048381
     74          1           0       -3.356518   -0.252761   -5.954206
     75          1           0       -3.006909   -1.045516   -7.372761
 ---------------------------------------------------------------------

 SCF Done:  E(RB3LYP) =  -1917.43079407     A.U. after    3 cycles

 Alpha  occ. eigenvalues --  -19.40684 -19.29507 -19.23190 -19.21925 -19.20902
 Alpha  occ. eigenvalues --  -19.19413 -19.18578 -14.58040 -14.45794 -14.45579
 Alpha  occ. eigenvalues --  -14.44329 -14.43418 -14.42755 -14.42543 -14.41636
 Alpha  occ. eigenvalues --  -14.36076 -10.51979 -10.41232 -10.39184 -10.38246
 Alpha  occ. eigenvalues --  -10.36628 -10.36267 -10.36164 -10.35861 -10.34701
 Alpha  occ. eigenvalues --  -10.33245 -10.32344 -10.31923 -10.31485 -10.31325
 Alpha  occ. eigenvalues --  -10.31311 -10.30949 -10.30673 -10.30227 -10.29034
 Alpha  occ. eigenvalues --  -10.27884 -10.27550 -10.25609 -10.25008  -1.30482
 Alpha  occ. eigenvalues --   -1.19824  -1.14291  -1.14043  -1.12636  -1.11360
 Alpha  occ. eigenvalues --   -1.10795  -1.10311  -1.05197  -1.03896  -1.02315
 Alpha  occ. eigenvalues --   -1.01464  -1.00076  -0.97524  -0.97205  -0.95948
 Alpha  occ. eigenvalues --   -0.93805  -0.91578  -0.89526  -0.87174  -0.86138
 Alpha  occ. eigenvalues --   -0.85737  -0.85004  -0.83768  -0.81752  -0.79513
 Alpha  occ. eigenvalues --   -0.78417  -0.76536  -0.75726  -0.75049  -0.73123
 Alpha  occ. eigenvalues --   -0.72132  -0.70216  -0.69836  -0.68895  -0.68138
 Alpha  occ. eigenvalues --   -0.67394  -0.66164  -0.65783  -0.65485  -0.65292
 Alpha  occ. eigenvalues --   -0.64664  -0.63166  -0.62447  -0.62113  -0.61205
 Alpha  occ. eigenvalues --   -0.60421  -0.60170  -0.59584  -0.58837  -0.58394
 Alpha  occ. eigenvalues --   -0.57930  -0.57680  -0.57361  -0.56804  -0.56337
 Alpha  occ. eigenvalues --   -0.56064  -0.55547  -0.54931  -0.54363  -0.54217
 Alpha  occ. eigenvalues --   -0.53484  -0.53106  -0.52773  -0.52437  -0.52068
 Alpha  occ. eigenvalues --   -0.51923  -0.51521  -0.51371  -0.50865  -0.50525
 Alpha  occ. eigenvalues --   -0.49864  -0.49694  -0.49470  -0.48888  -0.48831
 Alpha  occ. eigenvalues --   -0.47932  -0.47612  -0.46964  -0.46811  -0.46478
 Alpha  occ. eigenvalues --   -0.46066  -0.45538  -0.45296  -0.44731  -0.44569
 Alpha  occ. eigenvalues --   -0.44128  -0.43878  -0.41584  -0.41403  -0.40822
 Alpha  occ. eigenvalues --   -0.40177  -0.38271  -0.37279  -0.37026  -0.36898
 Alpha  occ. eigenvalues --   -0.36516  -0.36165  -0.35542  -0.35067  -0.34044
 Alpha  occ. eigenvalues --   -0.33834  -0.33163  -0.32872  -0.32297  -0.31630
 Alpha  occ. eigenvalues --   -0.30047
 Alpha virt. eigenvalues --   -0.20264  -0.13449  -0.12401  -0.12249  -0.08517
 Alpha virt. eigenvalues --   -0.08295  -0.07950  -0.07520  -0.05879  -0.05539
 Alpha virt. eigenvalues --   -0.04720  -0.04390  -0.02496  -0.02262  -0.01225

 Mulliken charges:
               1
     1  N   -0.764264
     2  C   -0.068218
     3  C    0.660862
     4  O   -0.548156
     5  C   -0.391837
     6  C    0.614951
     7  N   -0.708061
     8  O   -0.500569
     9  H    0.321600
    10  H    0.453530
    11  H    0.245439
    12  H    0.218182
    13  H    0.246775
    14  H    0.385139
    15  H    0.407623
    16  H    0.319281
    17  N   -0.643044
    18  C   -0.073207
    19  C    0.621322
    20  O   -0.534517
    21  C   -0.359915
    22  C    0.178189
    23  C   -0.159652
    24  C   -0.194725
    25  C   -0.137168
    26  C   -0.153114
    27  C   -0.206365
    28  H    0.408064
    29  H    0.209875
    30  H    0.167161
    31  H    0.190119
    32  H    0.168596
    33  H    0.142061
    34  H    0.164856
    35  H    0.152003
    36  H    0.154878
    37  N   -0.647075
    38  C   -0.080517
    39  C    0.668001
    40  O   -0.571244
    41  C   -0.353764
    42  C    0.570808
    43  N   -0.717605
    44  O   -0.503513
    45  H    0.375370
    46  H    0.201256
    47  H    0.160875
    48  H    0.209768
    49  H    0.366027
    50  H    0.341041
    51  N   -0.611599
    52  C   -0.071193
    53  C    0.613049
    54  O   -0.461944
    55  C   -0.261476
    56  C   -0.291582
    57  C   -0.156175
    58  N   -0.641280
    59  C    0.607811
    60  N   -0.701772
    61  N   -0.748587
    62  O   -0.593578
    63  H    0.406506
    64  H    0.384214
    65  H    0.194063
    66  H    0.153018
    67  H    0.196312
    68  H    0.153131
    69  H    0.159207
    70  H    0.156119
    71  H    0.220864
    72  H    0.328016
    73  H    0.290884
    74  H    0.361335
    75  H    0.307532
 Sum of Mulliken charges =   1.00000

 Dipole moment (field-independent basis, Debye):
    X=            -43.1439    Y=            -25.2386    Z=            -39.0883  Tot=             63.4530
 Quadrupole moment (field-independent basis, Debye-Ang):
   XX=            191.7620   YY=            -46.2050   ZZ=            111.0051
   XY=            254.4947   XZ=            360.4673   YZ=            230.1853

 Normal termination of Gaussian 16 at Tue Jun  7 01:06:48 2022.
