 Gaussian 16, Revision C.01,
 Gaussian 16:  ES64L-G16RevC.01  3-Jul-2019

 ----------------------------------------------------------------------
 # B3LYP/6-31G* empiricaldispersion=gd3 guess=read geom=check nosymm in
 tegral(ultrafinegrid)
 ----------------------------------------------------------------------

 ------------------------------------------------------
 Candidate Structure: Conf:879 Charge calc in gas phase
 ------------------------------------------------------
 Structure from the checkpoint file:  "conf-879.chk"
 Charge =  1 Multiplicity = 1

                          Input orientation:
 ---------------------------------------------------------------------
 Center     Atomic      Atomic             Coordinates (Angstroms)
 Number     Number       Type             X           Y           Z
 ---------------------------------------------------------------------
      1          7           0       -9.893241   -3.007059   -7.073703
      2          6           0       -9.181738   -3.320744   -5.874803
      3          6           0       -8.429847   -2.086759   -5.331462
      4          8           0       -8.667250   -1.658994   -4.212742
      5          6           0       -8.084525   -4.490512   -5.949583
      6          6           0       -8.703062   -5.728890   -6.430359
      7          7           0       -8.830267   -5.961969   -7.717649
      8          8           0       -9.209513   -6.526197   -5.515750
      9          1           0      -10.685846   -3.600333   -7.283116
     10          1           0       -9.671150   -7.309480   -5.869367
     11          1           0       -9.896478   -3.585256   -5.093738
     12          1           0       -7.290148   -4.186219   -6.631373
     13          1           0       -7.660156   -4.644131   -4.954462
     14          1           0       -9.306034   -6.779772   -8.084301
     15          1           0       -8.410952   -5.301793   -8.389830
     16          1           0       -9.324470   -2.846369   -7.895753
     17          7           0       -7.488787   -1.555834   -6.165789
     18          6           0       -6.512815   -0.589984   -5.677737
     19          6           0       -6.231206    0.584260   -6.638276
     20          8           0       -5.138349    1.142932   -6.559639
     21          6           0       -5.150127   -1.278990   -5.364383
     22          6           0       -5.264837   -2.621864   -4.677701
     23          6           0       -5.893370   -2.763358   -3.431723
     24          6           0       -4.724025   -3.765097   -5.282345
     25          6           0       -5.983696   -4.012453   -2.815580
     26          6           0       -4.800441   -5.016065   -4.665070
     27          6           0       -5.435414   -5.144262   -3.428118
     28          1           0       -7.374201   -1.919700   -7.105170
     29          1           0       -6.935921   -0.186343   -4.752698
     30          1           0       -4.609067   -1.405389   -6.308588
     31          1           0       -4.553546   -0.579604   -4.771715
     32          1           0       -6.335167   -1.897288   -2.949437
     33          1           0       -4.220059   -3.671664   -6.242555
     34          1           0       -6.474643   -4.099259   -1.850396
     35          1           0       -4.355192   -5.884266   -5.144233
     36          1           0       -5.491543   -6.112214   -2.937676
     37          7           0       -7.129037    0.934406   -7.608020
     38          6           0       -8.568367    0.725653   -7.681027
     39          6           0       -9.010524   -0.321881   -8.719788
     40          8           0      -10.199087   -0.509722   -8.933395
     41          6           0       -9.305322    2.045812   -7.963217
     42          6           0       -8.950207    2.586554   -9.348126
     43          7           0       -9.248746    3.886395   -9.574421
     44          8           0       -8.440303    1.862328  -10.202112
     45          1           0       -6.714123    1.547071   -8.316420
     46          1           0       -8.924590    0.351295   -6.719940
     47          1           0       -9.075545    2.773989   -7.177990
     48          1           0      -10.382313    1.846531   -7.939507
     49          1           0       -9.044959    4.278819  -10.483642
     50          1           0       -9.650706    4.485438   -8.868767
     51          7           0       -8.018443   -1.095060   -9.291273
     52          6           0       -8.392623   -1.880585  -10.456153
     53          6           0       -7.823231   -3.282236  -10.331905
     54          8           0       -7.703533   -3.888126   -9.266509
     55          6           0       -8.206149   -1.170881  -11.813826
     56          6           0       -6.786449   -0.900895  -12.343929
     57          6           0       -5.952777    0.143473  -11.594128
     58          7           0       -5.317305   -0.440538  -10.395425
     59          6           0       -4.624515    0.444596   -9.544147
     60          7           0       -4.932020    1.689756   -9.528472
     61          7           0       -3.648247   -0.182864   -8.773162
     62          8           0       -7.533806   -3.852426  -11.502622
     63          1           0       -7.220721   -4.762518  -11.338659
     64          1           0       -7.073758   -0.705341   -9.339130
     65          1           0       -9.478698   -2.034785  -10.345785
     66          1           0       -8.741339   -1.767221  -12.561638
     67          1           0       -8.740035   -0.219599  -11.718559
     68          1           0       -6.226595   -1.842454  -12.435390
     69          1           0       -6.908637   -0.534968  -13.370337
     70          1           0       -5.180504    0.553233  -12.259294
     71          1           0       -6.571974    0.979241  -11.268205
     72          1           0       -4.731716   -1.231976  -10.653626
     73          1           0       -4.409981    2.174954   -8.798644
     74          1           0       -3.473244    0.293562   -7.894296
     75          1           0       -3.771907   -1.178961   -8.629058
 ---------------------------------------------------------------------

 SCF Done:  E(RB3LYP) =  -1917.42659064     A.U. after    1 cycles

 Alpha  occ. eigenvalues --  -19.38975 -19.33595 -19.28525 -19.21577 -19.20767
 Alpha  occ. eigenvalues --  -19.20218 -19.20120 -14.55885 -14.45957 -14.44730
 Alpha  occ. eigenvalues --  -14.44262 -14.44257 -14.43496 -14.43449 -14.42366
 Alpha  occ. eigenvalues --  -14.35868 -10.50064 -10.46125 -10.38889 -10.37981
 Alpha  occ. eigenvalues --  -10.37814 -10.37811 -10.35802 -10.35569 -10.34146
 Alpha  occ. eigenvalues --  -10.33553 -10.32942 -10.32825 -10.28670 -10.28406
 Alpha  occ. eigenvalues --  -10.28364 -10.27958 -10.27803 -10.27725 -10.27644
 Alpha  occ. eigenvalues --  -10.27581 -10.27455 -10.27135 -10.26941  -1.28666
 Alpha  occ. eigenvalues --   -1.24749  -1.15419  -1.13728  -1.13091  -1.12145
 Alpha  occ. eigenvalues --   -1.12115  -1.11790  -1.05453  -1.03199  -1.02084
 Alpha  occ. eigenvalues --   -1.01121  -1.00316  -0.99031  -0.96537  -0.94168
 Alpha  occ. eigenvalues --   -0.92535  -0.91854  -0.88877  -0.87659  -0.86601
 Alpha  occ. eigenvalues --   -0.83725  -0.83581  -0.82927  -0.81645  -0.78023
 Alpha  occ. eigenvalues --   -0.77552  -0.76995  -0.76623  -0.74745  -0.73155
 Alpha  occ. eigenvalues --   -0.71911  -0.69561  -0.68733  -0.68653  -0.68250
 Alpha  occ. eigenvalues --   -0.67682  -0.67059  -0.66756  -0.66358  -0.64521
 Alpha  occ. eigenvalues --   -0.63488  -0.63244  -0.62598  -0.62024  -0.61117
 Alpha  occ. eigenvalues --   -0.60942  -0.60483  -0.59776  -0.59212  -0.59079
 Alpha  occ. eigenvalues --   -0.58793  -0.58357  -0.56976  -0.56504  -0.55958
 Alpha  occ. eigenvalues --   -0.55358  -0.55158  -0.54544  -0.54483  -0.54207
 Alpha  occ. eigenvalues --   -0.53696  -0.53562  -0.53216  -0.52697  -0.52310
 Alpha  occ. eigenvalues --   -0.52289  -0.51828  -0.51051  -0.50370  -0.50159
 Alpha  occ. eigenvalues --   -0.49848  -0.49610  -0.49442  -0.49248  -0.48485
 Alpha  occ. eigenvalues --   -0.47974  -0.47860  -0.47242  -0.47085  -0.46583
 Alpha  occ. eigenvalues --   -0.46311  -0.45753  -0.45164  -0.45004  -0.44461
 Alpha  occ. eigenvalues --   -0.43972  -0.43425  -0.42469  -0.42150  -0.42037
 Alpha  occ. eigenvalues --   -0.41773  -0.41046  -0.37252  -0.36944  -0.36344
 Alpha  occ. eigenvalues --   -0.35651  -0.35312  -0.34314  -0.34100  -0.34008
 Alpha  occ. eigenvalues --   -0.33775  -0.33656  -0.33234  -0.32751  -0.32575
 Alpha  occ. eigenvalues --   -0.30501
 Alpha virt. eigenvalues --   -0.18636  -0.13485  -0.11372  -0.09290  -0.08909
 Alpha virt. eigenvalues --   -0.07818  -0.07166  -0.06890  -0.06211  -0.05818
 Alpha virt. eigenvalues --   -0.05559  -0.04182  -0.02403  -0.02306  -0.00156

 Mulliken charges:
               1
     1  N   -0.728016
     2  C   -0.089672
     3  C    0.659172
     4  O   -0.499540
     5  C   -0.394484
     6  C    0.608831
     7  N   -0.724258
     8  O   -0.509830
     9  H    0.318837
    10  H    0.447766
    11  H    0.200967
    12  H    0.207121
    13  H    0.241593
    14  H    0.374404
    15  H    0.439443
    16  H    0.345124
    17  N   -0.634905
    18  C   -0.072908
    19  C    0.611070
    20  O   -0.526920
    21  C   -0.354258
    22  C    0.174018
    23  C   -0.172547
    24  C   -0.205198
    25  C   -0.142876
    26  C   -0.137324
    27  C   -0.146637
    28  H    0.343682
    29  H    0.218123
    30  H    0.125526
    31  H    0.200438
    32  H    0.162726
    33  H    0.117645
    34  H    0.154723
    35  H    0.136792
    36  H    0.144774
    37  N   -0.655717
    38  C   -0.058862
    39  C    0.657068
    40  O   -0.523505
    41  C   -0.379532
    42  C    0.625778
    43  N   -0.747550
    44  O   -0.517915
    45  H    0.390868
    46  H    0.204861
    47  H    0.175907
    48  H    0.218301
    49  H    0.360363
    50  H    0.354537
    51  N   -0.658838
    52  C   -0.093753
    53  C    0.611672
    54  O   -0.528238
    55  C   -0.273890
    56  C   -0.292463
    57  C   -0.151710
    58  N   -0.655922
    59  C    0.599912
    60  N   -0.657996
    61  N   -0.753228
    62  O   -0.525060
    63  H    0.420246
    64  H    0.403510
    65  H    0.219975
    66  H    0.154742
    67  H    0.202209
    68  H    0.131453
    69  H    0.165761
    70  H    0.159989
    71  H    0.235587
    72  H    0.312734
    73  H    0.302603
    74  H    0.362690
    75  H    0.310015
 Sum of Mulliken charges =   1.00000

 Dipole moment (field-independent basis, Debye):
    X=            -40.1906    Y=            -21.6720    Z=            -39.7086  Tot=             60.5123
 Quadrupole moment (field-independent basis, Debye-Ang):
   XX=            119.1758   YY=            -42.5509   ZZ=            124.1470
   XY=            176.7737   XZ=            328.8364   YZ=            164.6433

 Normal termination of Gaussian 16 at Tue Jun  7 01:06:07 2022.
