 Gaussian 16, Revision C.01,
 Gaussian 16:  ES64L-G16RevC.01  3-Jul-2019

 ----------------------------------------------------------------------
 # B3LYP/6-31G* empiricaldispersion=gd3 guess=read geom=check nosymm in
 tegral(ultrafinegrid)
 ----------------------------------------------------------------------

 -----------------------------------------------------
 Candidate Structure: Conf:90 Charge calc in gas phase
 -----------------------------------------------------
 Structure from the checkpoint file:  "conf-90.chk"
 Charge =  1 Multiplicity = 1

                          Input orientation:
 ---------------------------------------------------------------------
 Center     Atomic      Atomic             Coordinates (Angstroms)
 Number     Number       Type             X           Y           Z
 ---------------------------------------------------------------------
      1          7           0       -8.786913    1.639516   -8.526781
      2          6           0       -9.531360    0.989848   -7.440145
      3          6           0       -8.647782    0.305370   -6.379186
      4          8           0       -8.373090    0.904497   -5.345234
      5          6           0      -10.618027    0.027694   -8.015844
      6          6           0      -11.087956    0.585007   -9.311745
      7          7           0      -10.647265    0.106428  -10.443353
      8          8           0      -11.958157    1.560930   -9.230617
      9          1           0       -8.006858    1.061993   -8.842091
     10          1           0      -12.173854    1.975632  -10.086841
     11          1           0      -10.052077    1.776276   -6.890709
     12          1           0      -10.242266   -0.979081   -8.185460
     13          1           0      -11.455946   -0.053000   -7.318296
     14          1           0      -10.868135    0.523899  -11.341470
     15          1           0       -9.858854   -0.563957  -10.400764
     16          1           0       -8.352573    2.486201   -8.164506
     17          7           0       -8.147781   -0.941255   -6.657605
     18          6           0       -7.737858   -1.813337   -5.558204
     19          6           0       -6.323695   -2.406700   -5.687472
     20          8           0       -6.130820   -3.582059   -5.376680
     21          6           0       -8.766617   -2.951703   -5.349548
     22          6           0      -10.204504   -2.481449   -5.416378
     23          6           0      -10.676515   -1.442400   -4.599394
     24          6           0      -11.098086   -3.077633   -6.316313
     25          6           0      -12.002066   -1.013462   -4.682430
     26          6           0      -12.428872   -2.658872   -6.396289
     27          6           0      -12.885451   -1.621849   -5.580282
     28          1           0       -8.369097   -1.385909   -7.541355
     29          1           0       -7.712777   -1.161676   -4.678196
     30          1           0       -8.591079   -3.725042   -6.104870
     31          1           0       -8.550799   -3.426553   -4.386894
     32          1           0      -10.002882   -0.953774   -3.901068
     33          1           0      -10.751519   -3.889800   -6.951785
     34          1           0      -12.347761   -0.210487   -4.037282
     35          1           0      -13.108135   -3.148403   -7.089229
     36          1           0      -13.921401   -1.298379   -5.632052
     37          7           0       -5.278250   -1.613104   -6.059271
     38          6           0       -5.300006   -0.331267   -6.745396
     39          6           0       -5.709992   -0.432507   -8.225407
     40          8           0       -6.024845    0.584297   -8.857985
     41          6           0       -3.934525    0.376921   -6.629753
     42          6           0       -2.776923   -0.408710   -7.245476
     43          7           0       -1.742942    0.329214   -7.707771
     44          8           0       -2.776919   -1.641783   -7.302871
     45          1           0       -4.394515   -2.109077   -6.137953
     46          1           0       -6.031640    0.327233   -6.274073
     47          1           0       -3.710541    0.529854   -5.566786
     48          1           0       -4.026814    1.363430   -7.094311
     49          1           0       -0.912156   -0.152218   -8.026914
     50          1           0       -1.712442    1.334998   -7.626415
     51          7           0       -5.721187   -1.655512   -8.797536
     52          6           0       -6.021936   -1.762044  -10.207121
     53          6           0       -7.426903   -1.241322  -10.487248
     54          8           0       -8.391227   -1.412433   -9.752825
     55          6           0       -5.939145   -3.228532  -10.694941
     56          6           0       -4.516383   -3.752435  -10.933048
     57          6           0       -3.556848   -3.719925   -9.731667
     58          7           0       -4.163438   -4.058664   -8.430443
     59          6           0       -4.600454   -5.386823   -8.213644
     60          7           0       -4.805822   -6.155104   -9.221843
     61          7           0       -4.718658   -5.680866   -6.865660
     62          8           0       -7.636778   -0.647520  -11.670281
     63          1           0       -6.798548   -0.494236  -12.140818
     64          1           0       -5.314530   -2.490873   -8.351581
     65          1           0       -5.317401   -1.140187  -10.780992
     66          1           0       -6.459749   -3.867667   -9.974083
     67          1           0       -6.490349   -3.307665  -11.640499
     68          1           0       -4.617357   -4.786544  -11.265081
     69          1           0       -4.048036   -3.180905  -11.746792
     70          1           0       -2.718033   -4.392276   -9.953594
     71          1           0       -3.149013   -2.713459   -9.595361
     72          1           0       -3.537089   -3.756394   -7.688499
     73          1           0       -5.171895   -7.060523   -8.924300
     74          1           0       -5.178048   -6.559135   -6.661799
     75          1           0       -5.035678   -4.927202   -6.255364
 ---------------------------------------------------------------------

 SCF Done:  E(RB3LYP) =  -1917.45139724     A.U. after    2 cycles

 Alpha  occ. eigenvalues --  -19.37571 -19.33450 -19.28188 -19.22776 -19.22639
 Alpha  occ. eigenvalues --  -19.21728 -19.21438 -14.53776 -14.46524 -14.46219
 Alpha  occ. eigenvalues --  -14.45875 -14.45186 -14.42376 -14.42181 -14.40131
 Alpha  occ. eigenvalues --  -14.35200 -10.48980 -10.45891 -10.40308 -10.39448
 Alpha  occ. eigenvalues --  -10.38753 -10.38739 -10.35670 -10.34664 -10.34339
 Alpha  occ. eigenvalues --  -10.34237 -10.32961 -10.32731 -10.30875 -10.29378
 Alpha  occ. eigenvalues --  -10.29067 -10.28278 -10.27703 -10.27495 -10.27387
 Alpha  occ. eigenvalues --  -10.27340 -10.27300 -10.27097 -10.26484  -1.27377
 Alpha  occ. eigenvalues --   -1.24334  -1.15767  -1.14697  -1.14170  -1.13745
 Alpha  occ. eigenvalues --   -1.13165  -1.10481  -1.04295  -1.03676  -1.02720
 Alpha  occ. eigenvalues --   -1.01658  -1.01262  -0.99937  -0.95221  -0.93932
 Alpha  occ. eigenvalues --   -0.91167  -0.90549  -0.89992  -0.88383  -0.87401
 Alpha  occ. eigenvalues --   -0.83299  -0.83094  -0.82711  -0.81077  -0.78568
 Alpha  occ. eigenvalues --   -0.76879  -0.76508  -0.75393  -0.74868  -0.74576
 Alpha  occ. eigenvalues --   -0.71388  -0.70258  -0.69599  -0.69217  -0.68838
 Alpha  occ. eigenvalues --   -0.68484  -0.67933  -0.66707  -0.64664  -0.64401
 Alpha  occ. eigenvalues --   -0.64002  -0.63602  -0.63413  -0.62576  -0.60906
 Alpha  occ. eigenvalues --   -0.60555  -0.60200  -0.59261  -0.58868  -0.58552
 Alpha  occ. eigenvalues --   -0.58436  -0.57883  -0.57421  -0.56765  -0.56478
 Alpha  occ. eigenvalues --   -0.55833  -0.55560  -0.54878  -0.54635  -0.54226
 Alpha  occ. eigenvalues --   -0.53748  -0.53577  -0.53187  -0.52799  -0.52680
 Alpha  occ. eigenvalues --   -0.51753  -0.51262  -0.51003  -0.50853  -0.50290
 Alpha  occ. eigenvalues --   -0.50261  -0.50141  -0.49617  -0.49433  -0.48640
 Alpha  occ. eigenvalues --   -0.48405  -0.47974  -0.47704  -0.47203  -0.46867
 Alpha  occ. eigenvalues --   -0.46294  -0.46011  -0.45684  -0.45030  -0.44952
 Alpha  occ. eigenvalues --   -0.43767  -0.43408  -0.43100  -0.42230  -0.42163
 Alpha  occ. eigenvalues --   -0.41890  -0.41131  -0.38813  -0.38143  -0.37716
 Alpha  occ. eigenvalues --   -0.37126  -0.36705  -0.36615  -0.34508  -0.34013
 Alpha  occ. eigenvalues --   -0.33511  -0.33373  -0.33114  -0.32821  -0.32568
 Alpha  occ. eigenvalues --   -0.29764
 Alpha virt. eigenvalues --   -0.16656  -0.12719  -0.10055  -0.09619  -0.09207
 Alpha virt. eigenvalues --   -0.08807  -0.08397  -0.08135  -0.07748  -0.05932
 Alpha virt. eigenvalues --   -0.04165  -0.02270  -0.01331  -0.00797  -0.00158

 Mulliken charges:
               1
     1  N   -0.784111
     2  C   -0.068062
     3  C    0.623460
     4  O   -0.517657
     5  C   -0.387852
     6  C    0.649911
     7  N   -0.705217
     8  O   -0.510660
     9  H    0.363154
    10  H    0.447365
    11  H    0.197720
    12  H    0.202571
    13  H    0.232929
    14  H    0.372234
    15  H    0.440555
    16  H    0.331646
    17  N   -0.640390
    18  C   -0.080653
    19  C    0.622034
    20  O   -0.520718
    21  C   -0.359739
    22  C    0.169297
    23  C   -0.187801
    24  C   -0.206571
    25  C   -0.141959
    26  C   -0.133334
    27  C   -0.147362
    28  H    0.364446
    29  H    0.219733
    30  H    0.158978
    31  H    0.195670
    32  H    0.156332
    33  H    0.135593
    34  H    0.153079
    35  H    0.143377
    36  H    0.147191
    37  N   -0.628270
    38  C   -0.053408
    39  C    0.638620
    40  O   -0.576710
    41  C   -0.395034
    42  C    0.613732
    43  N   -0.733692
    44  O   -0.536410
    45  H    0.367120
    46  H    0.209642
    47  H    0.213176
    48  H    0.189163
    49  H    0.363971
    50  H    0.359516
    51  N   -0.635045
    52  C   -0.036845
    53  C    0.666111
    54  O   -0.527225
    55  C   -0.313247
    56  C   -0.264134
    57  C   -0.134775
    58  N   -0.668507
    59  C    0.589834
    60  N   -0.650230
    61  N   -0.787664
    62  O   -0.567625
    63  H    0.442439
    64  H    0.415458
    65  H    0.159149
    66  H    0.190170
    67  H    0.155228
    68  H    0.208730
    69  H    0.129886
    70  H    0.173431
    71  H    0.148739
    72  H    0.361961
    73  H    0.277688
    74  H    0.325392
    75  H    0.374478
 Sum of Mulliken charges =   1.00000

 Dipole moment (field-independent basis, Debye):
    X=            -39.0888    Y=              1.1235    Z=            -46.2034  Tot=             60.5306
 Quadrupole moment (field-independent basis, Debye-Ang):
   XX=            185.6932   YY=           -213.6404   ZZ=            240.5717
   XY=             -4.1641   XZ=            388.5029   YZ=            -15.0738

 Normal termination of Gaussian 16 at Tue Jun  7 01:06:36 2022.
