 Gaussian 16, Revision C.01,
 Gaussian 16:  ES64L-G16RevC.01  3-Jul-2019

 ----------------------------------------------------------------------
 # B3LYP/6-31G* empiricaldispersion=gd3 guess=read geom=check nosymm in
 tegral(ultrafinegrid)
 ----------------------------------------------------------------------

 ------------------------------------------------------
 Candidate Structure: Conf:234 Charge calc in gas phase
 ------------------------------------------------------
 Structure from the checkpoint file:  "conf-234.chk"
 Charge =  1 Multiplicity = 1

                          Input orientation:
 ---------------------------------------------------------------------
 Center     Atomic      Atomic             Coordinates (Angstroms)
 Number     Number       Type             X           Y           Z
 ---------------------------------------------------------------------
      1          7           0       -4.358359    0.008833   -8.249237
      2          6           0       -5.007438   -0.858658   -9.239797
      3          6           0       -6.480720   -0.480663   -9.481873
      4          8           0       -6.725998    0.620826   -9.968029
      5          6           0       -4.769721   -2.352952   -8.880029
      6          6           0       -3.405243   -2.485842   -8.302201
      7          7           0       -3.239097   -2.645122   -7.018765
      8          8           0       -2.414105   -2.456381   -9.161088
      9          1           0       -4.951445    0.073787   -7.421217
     10          1           0       -1.531158   -2.447903   -8.747114
     11          1           0       -4.517133   -0.676237  -10.200546
     12          1           0       -5.472710   -2.720294   -8.135151
     13          1           0       -4.850995   -2.971705   -9.779932
     14          1           0       -2.324826   -2.675815   -6.580154
     15          1           0       -4.069230   -2.528696   -6.411327
     16          1           0       -4.344996    0.953809   -8.631128
     17          7           0       -7.446056   -1.365012   -9.112310
     18          6           0       -8.802350   -1.255934   -9.641478
     19          6           0       -9.768099   -1.462219   -8.461337
     20          8           0      -10.378071   -2.514911   -8.288841
     21          6           0       -9.071419   -2.276084  -10.787989
     22          6           0       -7.817311   -2.634254  -11.555260
     23          6           0       -7.100582   -1.665876  -12.273660
     24          6           0       -7.299658   -3.934339  -11.494622
     25          6           0       -5.885605   -1.981423  -12.882769
     26          6           0       -6.086824   -4.259411  -12.108969
     27          6           0       -5.368975   -3.278058  -12.795966
     28          1           0       -7.218251   -2.295414   -8.759998
     29          1           0       -8.895957   -0.238776  -10.026237
     30          1           0       -9.517612   -3.175161  -10.356105
     31          1           0       -9.829113   -1.843392  -11.451867
     32          1           0       -7.476214   -0.647858  -12.323849
     33          1           0       -7.865098   -4.707718  -10.978566
     34          1           0       -5.344240   -1.215052  -13.430648
     35          1           0       -5.711398   -5.278377  -12.061425
     36          1           0       -4.426955   -3.524944  -13.277556
     37          7           0       -9.912405   -0.423391   -7.581155
     38          6           0       -9.010407    0.701189   -7.370089
     39          6           0       -7.838050    0.403258   -6.405449
     40          8           0       -6.754630    0.961911   -6.539428
     41          6           0       -9.791963    1.943471   -6.898127
     42          6           0      -10.620735    1.717358   -5.630287
     43          7           0      -11.325995    2.786444   -5.203901
     44          8           0      -10.655424    0.635476   -5.031376
     45          1           0      -10.538613   -0.635580   -6.810655
     46          1           0       -8.519831    0.967534   -8.308490
     47          1           0      -10.465402    2.257301   -7.704849
     48          1           0       -9.085710    2.765929   -6.731783
     49          1           0      -11.927386    2.680278   -4.397344
     50          1           0      -11.344383    3.662633   -5.705693
     51          7           0       -8.078459   -0.494092   -5.395367
     52          6           0       -7.088200   -0.627789   -4.346268
     53          6           0       -5.783350   -1.207197   -4.895800
     54          8           0       -5.660730   -1.774926   -5.962516
     55          6           0       -7.630761   -1.463468   -3.158639
     56          6           0       -8.302277   -2.814418   -3.478983
     57          6           0       -7.496546   -3.795929   -4.348514
     58          7           0       -7.880816   -3.669266   -5.749821
     59          6           0       -7.166990   -4.337756   -6.718777
     60          7           0       -6.128779   -5.039100   -6.426860
     61          7           0       -7.689723   -4.103924   -8.013553
     62          8           0       -4.705809   -1.089063   -4.100197
     63          1           0       -4.906103   -0.586597   -3.291277
     64          1           0       -9.053614   -0.537645   -5.101189
     65          1           0       -6.818615    0.370665   -3.964893
     66          1           0       -6.800418   -1.631461   -2.460974
     67          1           0       -8.351595   -0.832408   -2.625738
     68          1           0       -8.515232   -3.284732   -2.513070
     69          1           0       -9.282468   -2.651642   -3.944281
     70          1           0       -6.414849   -3.654504   -4.211645
     71          1           0       -7.699744   -4.826413   -4.041820
     72          1           0       -8.202322   -2.748685   -6.028796
     73          1           0       -5.810796   -5.578375   -7.234256
     74          1           0       -7.380310   -4.785250   -8.698151
     75          1           0       -8.705529   -4.001006   -8.037125
 ---------------------------------------------------------------------

 SCF Done:  E(RB3LYP) =  -1917.44659782     A.U. after    1 cycles

 Alpha  occ. eigenvalues --  -19.36755 -19.32556 -19.27017 -19.23252 -19.23174
 Alpha  occ. eigenvalues --  -19.21224 -19.20351 -14.52930 -14.46801 -14.46697
 Alpha  occ. eigenvalues --  -14.45361 -14.44533 -14.43684 -14.42358 -14.41104
 Alpha  occ. eigenvalues --  -14.37183 -10.48149 -10.45059 -10.40819 -10.39698
 Alpha  occ. eigenvalues --  -10.38408 -10.37583 -10.36460 -10.36147 -10.34258
 Alpha  occ. eigenvalues --  -10.33260 -10.32256 -10.32054 -10.31195 -10.31067
 Alpha  occ. eigenvalues --  -10.29960 -10.28710 -10.27853 -10.27264 -10.27195
 Alpha  occ. eigenvalues --  -10.27179 -10.27029 -10.26964 -10.26606  -1.26539
 Alpha  occ. eigenvalues --   -1.23421  -1.15453  -1.14868  -1.14465  -1.13144
 Alpha  occ. eigenvalues --   -1.12266  -1.09627  -1.05972  -1.04161  -1.02292
 Alpha  occ. eigenvalues --   -1.01661  -1.01218  -0.98920  -0.97172  -0.93551
 Alpha  occ. eigenvalues --   -0.92698  -0.90712  -0.90333  -0.88530  -0.86853
 Alpha  occ. eigenvalues --   -0.84270  -0.82659  -0.82413  -0.80146  -0.78799
 Alpha  occ. eigenvalues --   -0.77696  -0.75998  -0.74843  -0.74494  -0.73820
 Alpha  occ. eigenvalues --   -0.71134  -0.70103  -0.69521  -0.68864  -0.68754
 Alpha  occ. eigenvalues --   -0.68238  -0.67464  -0.67202  -0.66027  -0.64971
 Alpha  occ. eigenvalues --   -0.64241  -0.63333  -0.62888  -0.61952  -0.61537
 Alpha  occ. eigenvalues --   -0.60396  -0.60324  -0.59810  -0.59213  -0.58538
 Alpha  occ. eigenvalues --   -0.57758  -0.57455  -0.56537  -0.56178  -0.55989
 Alpha  occ. eigenvalues --   -0.55911  -0.55313  -0.55205  -0.54726  -0.54272
 Alpha  occ. eigenvalues --   -0.53810  -0.53468  -0.53277  -0.52759  -0.52672
 Alpha  occ. eigenvalues --   -0.52428  -0.52157  -0.51698  -0.50810  -0.50581
 Alpha  occ. eigenvalues --   -0.50163  -0.49991  -0.49954  -0.49404  -0.49205
 Alpha  occ. eigenvalues --   -0.48100  -0.47722  -0.47450  -0.47141  -0.46633
 Alpha  occ. eigenvalues --   -0.46370  -0.46322  -0.45226  -0.44980  -0.44229
 Alpha  occ. eigenvalues --   -0.44197  -0.43952  -0.43527  -0.43262  -0.41871
 Alpha  occ. eigenvalues --   -0.41484  -0.40988  -0.38888  -0.38437  -0.37731
 Alpha  occ. eigenvalues --   -0.36925  -0.36475  -0.35753  -0.35118  -0.34244
 Alpha  occ. eigenvalues --   -0.33926  -0.33694  -0.33121  -0.32803  -0.32446
 Alpha  occ. eigenvalues --   -0.31125
 Alpha virt. eigenvalues --   -0.15677  -0.12077  -0.10331  -0.09040  -0.08783
 Alpha virt. eigenvalues --   -0.08653  -0.08459  -0.07919  -0.06795  -0.06145
 Alpha virt. eigenvalues --   -0.03630  -0.03315  -0.02589  -0.02023  -0.01189

 Mulliken charges:
               1
     1  N   -0.767869
     2  C   -0.069315
     3  C    0.644916
     4  O   -0.540984
     5  C   -0.413879
     6  C    0.652060
     7  N   -0.696261
     8  O   -0.514900
     9  H    0.356219
    10  H    0.446330
    11  H    0.193806
    12  H    0.223759
    13  H    0.222340
    14  H    0.371147
    15  H    0.444232
    16  H    0.334356
    17  N   -0.668611
    18  C   -0.063194
    19  C    0.609074
    20  O   -0.514682
    21  C   -0.383526
    22  C    0.171486
    23  C   -0.186477
    24  C   -0.204537
    25  C   -0.137073
    26  C   -0.141189
    27  C   -0.140738
    28  H    0.422062
    29  H    0.196161
    30  H    0.179020
    31  H    0.177741
    32  H    0.156992
    33  H    0.126587
    34  H    0.150417
    35  H    0.141521
    36  H    0.145490
    37  N   -0.608424
    38  C   -0.090823
    39  C    0.633461
    40  O   -0.531313
    41  C   -0.390811
    42  C    0.610793
    43  N   -0.730111
    44  O   -0.542314
    45  H    0.355461
    46  H    0.222535
    47  H    0.202549
    48  H    0.206976
    49  H    0.366594
    50  H    0.362094
    51  N   -0.638865
    52  C   -0.062825
    53  C    0.684761
    54  O   -0.497423
    55  C   -0.315160
    56  C   -0.310920
    57  C   -0.105480
    58  N   -0.610601
    59  C    0.600270
    60  N   -0.657226
    61  N   -0.842418
    62  O   -0.569259
    63  H    0.436577
    64  H    0.385823
    65  H    0.177491
    66  H    0.150972
    67  H    0.185221
    68  H    0.175424
    69  H    0.167962
    70  H    0.152158
    71  H    0.180732
    72  H    0.348761
    73  H    0.267483
    74  H    0.331936
    75  H    0.375458
 Sum of Mulliken charges =   1.00000

 Dipole moment (field-independent basis, Debye):
    X=            -28.2782    Y=             -3.5497    Z=            -31.0727  Tot=             42.1636
 Quadrupole moment (field-independent basis, Debye-Ang):
   XX=             13.8921   YY=           -188.2638   ZZ=             19.5922
   XY=            -28.3186   XZ=            163.2669   YZ=             46.3704

 Normal termination of Gaussian 16 at Tue Jun  7 01:06:14 2022.
