 Gaussian 16, Revision C.01,
 Gaussian 16:  ES64L-G16RevC.01  3-Jul-2019

 ----------------------------------------------------------------------
 # B3LYP/6-31G* empiricaldispersion=gd3 guess=read geom=check nosymm in
 tegral(ultrafinegrid)
 ----------------------------------------------------------------------

 ------------------------------------------------------
 Candidate Structure: Conf:538 Charge calc in gas phase
 ------------------------------------------------------
 Structure from the checkpoint file:  "conf-538.chk"
 Charge =  1 Multiplicity = 1

                          Input orientation:
 ---------------------------------------------------------------------
 Center     Atomic      Atomic             Coordinates (Angstroms)
 Number     Number       Type             X           Y           Z
 ---------------------------------------------------------------------
      1          7           0        9.125367   16.908222   15.851748
      2          6           0        9.285515   16.800764   14.354056
      3          6           0        8.248899   17.721134   13.704289
      4          8           0        7.300533   18.116643   14.375709
      5          6           0        9.212563   15.322126   13.939835
      6          6           0       10.347055   14.471252   14.572204
      7          6           0       11.587581   15.358262   14.689513
      8          8           0       11.734218   15.959797   15.812572
      9          8           0       12.274611   15.541340   13.653705
     10          1           0       13.580872   16.548183   13.353137
     11          1           0        8.978789   17.886442   16.125306
     12          1           0       10.280286   17.205001   14.166940
     13          1           0        9.285489   15.277648   12.852032
     14          1           0        8.225591   14.919092   14.197481
     15          1           0       10.061901   14.115726   15.566590
     16          1           0       10.547752   13.604517   13.938756
     17          1           0        8.293069   16.401288   16.169976
     18          1           0       10.007495   16.518773   16.267988
     19          7           0        8.484753   18.039540   12.409420
     20          6           0        9.726844   17.787562   11.657473
     21          6           0       10.805438   18.826992   12.028359
     22          8           0       10.653267   20.010430   11.765898
     23          6           0        9.448811   17.845994   10.150148
     24          6           0       10.673715   17.508579    9.276139
     25          6           0       11.227425   16.101357    9.554806
     26          6           0       10.301362   17.661415    7.794472
     27          1           0        7.849101   18.734103   12.028815
     28          1           0       10.076409   16.785534   11.903830
     29          1           0        9.102357   18.859206    9.911670
     30          1           0        8.630874   17.148919    9.925841
     31          1           0       11.461352   18.242937    9.500305
     32          1           0       10.450163   15.340769    9.403867
     33          1           0       12.050158   15.870732    8.870049
     34          1           0       11.619355   15.985200   10.573207
     35          1           0        9.520682   16.943869    7.512067
     36          1           0        9.928503   18.668714    7.578115
     37          1           0       11.169849   17.478589    7.153054
     38          7           0       11.907910   18.319909   12.667354
     39          6           0       13.095562   19.153959   12.866805
     40          6           0       14.381081   18.378873   13.186740
     41          8           0       15.388724   19.024925   13.426664
     42          6           0       12.870997   20.289175   13.893680
     43          6           0       12.550192   19.888069   15.340967
     44          6           0       13.702801   19.295410   16.171530
     45          7           0       13.809141   17.842855   15.979959
     46          6           0       14.909980   17.093622   16.018030
     47          7           0       16.130776   17.628091   15.824528
     48          7           0       14.776627   15.780544   16.294316
     49          8           0       14.431021   17.049006   13.180441
     50          1           0       11.997481   17.310405   12.721578
     51          1           0       13.308898   19.655092   11.912249
     52          1           0       12.048426   20.893860   13.505800
     53          1           0       13.769429   20.913199   13.878501
     54          1           0       12.214799   20.793415   15.859358
     55          1           0       11.694241   19.196393   15.364083
     56          1           0       13.526984   19.482545   17.238300
     57          1           0       14.647232   19.771520   15.905213
     58          1           0       12.935173   17.300167   15.949740
     59          1           0       16.195091   18.323758   15.075697
     60          1           0       16.926624   17.007782   15.896168
     61          1           0       15.451054   15.129778   15.915041
     62          1           0       13.835415   15.425575   16.434233
 ---------------------------------------------------------------------

 SCF Done:  E(RB3LYP) =  -1447.51663408     A.U. after    1 cycles

 Alpha  occ. eigenvalues --  -19.28705 -19.25271 -19.25112 -19.24834 -19.24136
 Alpha  occ. eigenvalues --  -19.22740 -14.59763 -14.49728 -14.49033 -14.49015
 Alpha  occ. eigenvalues --  -14.48553 -14.47672 -10.45730 -10.43128 -10.42723
 Alpha  occ. eigenvalues --  -10.42595 -10.39870 -10.39793 -10.35321 -10.34903
 Alpha  occ. eigenvalues --  -10.34558 -10.34495 -10.31972 -10.30732 -10.29065
 Alpha  occ. eigenvalues --  -10.28861 -10.28277 -10.26354 -10.25213  -1.20316
 Alpha  occ. eigenvalues --   -1.18135  -1.17531  -1.14858  -1.14305  -1.13804
 Alpha  occ. eigenvalues --   -1.11801  -1.09010  -1.05562  -1.03947  -1.03585
 Alpha  occ. eigenvalues --   -1.02415  -0.94529  -0.91692  -0.90740  -0.86797
 Alpha  occ. eigenvalues --   -0.86604  -0.84289  -0.79949  -0.77883  -0.77034
 Alpha  occ. eigenvalues --   -0.75816  -0.75240  -0.74900  -0.73327  -0.72550
 Alpha  occ. eigenvalues --   -0.72148  -0.71493  -0.70671  -0.68759  -0.67786
 Alpha  occ. eigenvalues --   -0.67682  -0.65832  -0.64659  -0.63120  -0.62874
 Alpha  occ. eigenvalues --   -0.62137  -0.61884  -0.61200  -0.60645  -0.59540
 Alpha  occ. eigenvalues --   -0.59402  -0.58365  -0.57775  -0.57081  -0.56541
 Alpha  occ. eigenvalues --   -0.56143  -0.55708  -0.55455  -0.54244  -0.53988
 Alpha  occ. eigenvalues --   -0.53466  -0.53364  -0.52497  -0.52253  -0.51780
 Alpha  occ. eigenvalues --   -0.51161  -0.50569  -0.49993  -0.49828  -0.48891
 Alpha  occ. eigenvalues --   -0.48651  -0.48308  -0.47545  -0.46546  -0.45921
 Alpha  occ. eigenvalues --   -0.45440  -0.45214  -0.44498  -0.42329  -0.42042
 Alpha  occ. eigenvalues --   -0.41715  -0.41487  -0.41317  -0.41004  -0.39680
 Alpha  occ. eigenvalues --   -0.39476  -0.38871  -0.38650  -0.38456  -0.38006
 Alpha  occ. eigenvalues --   -0.36922  -0.35424
 Alpha virt. eigenvalues --   -0.12201  -0.11679  -0.10663  -0.10255  -0.10116
 Alpha virt. eigenvalues --   -0.09343  -0.05438  -0.04814  -0.03692  -0.02709
 Alpha virt. eigenvalues --   -0.02457  -0.01240  -0.00441  -0.00314  -0.00054

 Mulliken charges:
               1
     1  N   -0.737781
     2  C   -0.163528
     3  C    0.623495
     4  O   -0.503867
     5  C   -0.299784
     6  C   -0.340941
     7  C    0.587545
     8  O   -0.622282
     9  O   -0.562038
    10  H    0.458432
    11  H    0.415860
    12  H    0.224604
    13  H    0.213228
    14  H    0.186532
    15  H    0.163736
    16  H    0.202763
    17  H    0.412142
    18  H    0.427347
    19  N   -0.591870
    20  C   -0.088658
    21  C    0.629963
    22  O   -0.501961
    23  C   -0.281653
    24  C   -0.091299
    25  C   -0.462507
    26  C   -0.447532
    27  H    0.365990
    28  H    0.154540
    29  H    0.174454
    30  H    0.155476
    31  H    0.144437
    32  H    0.149150
    33  H    0.169220
    34  H    0.133161
    35  H    0.150865
    36  H    0.158677
    37  H    0.160724
    38  N   -0.679497
    39  C   -0.040299
    40  C    0.614595
    41  O   -0.493501
    42  C   -0.283128
    43  C   -0.292306
    44  C   -0.141863
    45  N   -0.639160
    46  C    0.755491
    47  N   -0.744629
    48  N   -0.756977
    49  O   -0.623088
    50  H    0.376211
    51  H    0.216003
    52  H    0.199903
    53  H    0.183587
    54  H    0.177318
    55  H    0.113219
    56  H    0.180443
    57  H    0.197155
    58  H    0.392623
    59  H    0.409288
    60  H    0.361385
    61  H    0.367293
    62  H    0.383295
 Sum of Mulliken charges =   1.00000

 Dipole moment (field-independent basis, Debye):
    X=             55.4103    Y=             79.2552    Z=             72.5339  Tot=            120.8836
 Quadrupole moment (field-independent basis, Debye-Ang):
   XX=            507.5105   YY=           1144.7254   ZZ=            952.1831
   XY=            918.1645   XZ=            849.7993   YZ=           1200.6862

 Normal termination of Gaussian 16 at Tue May 24 03:31:14 2022.
