 Gaussian 16, Revision C.01,
 Gaussian 16:  ES64L-G16RevC.01  3-Jul-2019

 ----------------------------------------------------------------------
 # B3LYP/6-31G* empiricaldispersion=gd3 guess=read geom=check nosymm in
 tegral(ultrafinegrid)
 ----------------------------------------------------------------------

 ------------------------------------------------------
 Candidate Structure: Conf:234 Charge calc in gas phase
 ------------------------------------------------------
 Structure from the checkpoint file:  "conf-234.chk"
 Charge =  1 Multiplicity = 1

                          Input orientation:
 ---------------------------------------------------------------------
 Center     Atomic      Atomic             Coordinates (Angstroms)
 Number     Number       Type             X           Y           Z
 ---------------------------------------------------------------------
      1          7           0       14.271604   18.931135   14.255266
      2          6           0       14.277396   17.430135   14.116240
      3          6           0       14.540967   16.933729   15.552228
      4          8           0       15.628357   17.216552   16.043230
      5          6           0       15.371395   16.969094   13.132903
      6          6           0       14.877530   16.760281   11.692952
      7          6           0       14.285161   17.985832   11.011026
      8          8           0       14.139671   19.075377   11.535189
      9          8           0       13.868001   17.822920    9.746991
     10          1           0       14.051744   16.925764    9.417985
     11          1           0       14.249883   19.349559   13.306420
     12          1           0       13.292295   17.159925   13.735908
     13          1           0       15.775618   16.017301   13.488959
     14          1           0       16.210853   17.671348   13.156289
     15          1           0       15.707361   16.390925   11.075680
     16          1           0       14.110299   15.972587   11.668778
     17          1           0       13.421509   19.178030   14.817194
     18          1           0       15.114279   19.212889   14.771056
     19          7           0       13.570889   16.238853   16.192066
     20          6           0       12.154952   16.131155   15.833294
     21          6           0       11.602950   17.486094   15.332443
     22          8           0       12.070444   18.564572   15.746035
     23          6           0       11.337477   15.672946   17.057752
     24          6           0       11.715585   14.296850   17.644239
     25          6           0       10.833149   14.011973   18.868892
     26          6           0       11.598195   13.170395   16.608288
     27          1           0       13.816733   16.027005   17.153247
     28          1           0       12.041084   15.389537   15.032809
     29          1           0       10.283981   15.649404   16.752305
     30          1           0       11.423312   16.450018   17.828711
     31          1           0       12.759631   14.330618   17.991734
     32          1           0       10.925124   14.801238   19.623643
     33          1           0        9.777050   13.943886   18.579651
     34          1           0       11.113080   13.062778   19.337463
     35          1           0       12.301381   13.294396   15.776275
     36          1           0       11.810546   12.200332   17.069388
     37          1           0       10.582838   13.126220   16.193773
     38          7           0       10.634758   17.394444   14.421964
     39          6           0        9.986619   18.520931   13.745878
     40          6           0        8.926533   17.927847   12.782666
     41          8           0        9.214222   16.758319   12.335842
     42          6           0       11.024537   19.362962   12.940396
     43          6           0       10.478070   20.051467   11.675172
     44          6           0       10.398267   19.086315   10.462658
     45          7           0        9.183680   19.291205    9.661964
     46          6           0        8.219824   18.397520    9.401610
     47          7           0        8.256003   17.143144    9.844707
     48          7           0        7.224448   18.769488    8.553316
     49          8           0        7.997573   18.666434   12.434407
     50          1           0       10.354030   16.500608   14.017298
     51          1           0        9.488881   19.157966   14.480264
     52          1           0       11.844367   18.698047   12.642345
     53          1           0       11.452995   20.113601   13.611405
     54          1           0        9.482302   20.447354   11.890569
     55          1           0       11.132013   20.892589   11.420177
     56          1           0       10.408616   18.048419   10.791195
     57          1           0       11.267352   19.225777    9.809756
     58          1           0        8.950771   20.256935    9.470497
     59          1           0        8.617663   16.912800   10.813725
     60          1           0        7.534913   16.523888    9.498928
     61          1           0        6.312689   18.348211    8.662503
     62          1           0        7.235350   19.684134    8.124934
 ---------------------------------------------------------------------

 SCF Done:  E(RB3LYP) =  -1447.48217366     A.U. after    1 cycles

 Alpha  occ. eigenvalues --  -19.33444 -19.28408 -19.23736 -19.23066 -19.17803
 Alpha  occ. eigenvalues --  -19.16385 -14.55820 -14.48746 -14.48503 -14.48034
 Alpha  occ. eigenvalues --  -14.46466 -14.45502 -10.46695 -10.44203 -10.41479
 Alpha  occ. eigenvalues --  -10.40004 -10.38722 -10.35119 -10.34974 -10.34938
 Alpha  occ. eigenvalues --  -10.33987 -10.32531 -10.31055 -10.29152 -10.28827
 Alpha  occ. eigenvalues --  -10.28442 -10.28143 -10.26012 -10.25284  -1.24404
 Alpha  occ. eigenvalues --   -1.16541  -1.16071  -1.14578  -1.12636  -1.10934
 Alpha  occ. eigenvalues --   -1.10583  -1.04477  -1.03159  -1.02485  -1.01405
 Alpha  occ. eigenvalues --   -0.99870  -0.94533  -0.91059  -0.89298  -0.86873
 Alpha  occ. eigenvalues --   -0.85749  -0.82842  -0.79295  -0.77939  -0.76779
 Alpha  occ. eigenvalues --   -0.75379  -0.74705  -0.74065  -0.72413  -0.71341
 Alpha  occ. eigenvalues --   -0.70183  -0.69830  -0.68919  -0.67075  -0.66550
 Alpha  occ. eigenvalues --   -0.65877  -0.65017  -0.64070  -0.63363  -0.61582
 Alpha  occ. eigenvalues --   -0.61387  -0.60965  -0.59999  -0.59678  -0.58886
 Alpha  occ. eigenvalues --   -0.58474  -0.57880  -0.56811  -0.56086  -0.55218
 Alpha  occ. eigenvalues --   -0.54838  -0.54600  -0.53803  -0.53286  -0.52836
 Alpha  occ. eigenvalues --   -0.52801  -0.51836  -0.51115  -0.50770  -0.50606
 Alpha  occ. eigenvalues --   -0.50157  -0.49301  -0.48826  -0.48745  -0.48143
 Alpha  occ. eigenvalues --   -0.47908  -0.46728  -0.46552  -0.46276  -0.45773
 Alpha  occ. eigenvalues --   -0.45460  -0.45192  -0.43770  -0.43022  -0.42146
 Alpha  occ. eigenvalues --   -0.41928  -0.41788  -0.41552  -0.39187  -0.38074
 Alpha  occ. eigenvalues --   -0.37770  -0.36956  -0.36351  -0.36300  -0.33185
 Alpha  occ. eigenvalues --   -0.32488  -0.30428
 Alpha virt. eigenvalues --   -0.13455  -0.11300  -0.09992  -0.08866  -0.07183
 Alpha virt. eigenvalues --   -0.05335  -0.04912  -0.04107  -0.03039  -0.02128
 Alpha virt. eigenvalues --   -0.01648  -0.01144  -0.00813  -0.00065   0.00027

 Mulliken charges:
               1
     1  N   -0.778840
     2  C   -0.108783
     3  C    0.614821
     4  O   -0.501495
     5  C   -0.283057
     6  C   -0.431045
     7  C    0.647107
     8  O   -0.479357
     9  O   -0.537852
    10  H    0.437450
    11  H    0.438912
    12  H    0.195888
    13  H    0.208369
    14  H    0.193956
    15  H    0.211901
    16  H    0.200267
    17  H    0.450937
    18  H    0.404886
    19  N   -0.598686
    20  C   -0.031548
    21  C    0.602660
    22  O   -0.592449
    23  C   -0.302210
    24  C   -0.086269
    25  C   -0.446111
    26  C   -0.453113
    27  H    0.361836
    28  H    0.161632
    29  H    0.168407
    30  H    0.172235
    31  H    0.128680
    32  H    0.155024
    33  H    0.154693
    34  H    0.163288
    35  H    0.137712
    36  H    0.168909
    37  H    0.152753
    38  N   -0.603484
    39  C    0.010383
    40  C    0.572848
    41  O   -0.643411
    42  C   -0.309974
    43  C   -0.292844
    44  C   -0.163038
    45  N   -0.587799
    46  C    0.798819
    47  N   -0.770549
    48  N   -0.762523
    49  O   -0.561497
    50  H    0.361896
    51  H    0.186269
    52  H    0.119972
    53  H    0.157823
    54  H    0.197817
    55  H    0.152057
    56  H    0.189178
    57  H    0.181081
    58  H    0.346786
    59  H    0.435288
    60  H    0.349078
    61  H    0.372225
    62  H    0.362087
 Sum of Mulliken charges =   1.00000

 Dipole moment (field-independent basis, Debye):
    X=             57.8513    Y=             83.5270    Z=             55.2597  Tot=            115.6597
 Quadrupole moment (field-independent basis, Debye-Ang):
   XX=            573.6568   YY=           1307.4935   ZZ=            516.9207
   XY=            995.9081   XZ=            696.2902   YZ=            938.8463

 Normal termination of Gaussian 16 at Tue May 24 03:31:54 2022.
