 Gaussian 16, Revision C.01,
 Gaussian 16:  ES64L-G16RevC.01  3-Jul-2019

 ----------------------------------------------------------------------
 # B3LYP/6-31G* empiricaldispersion=gd3 guess=read geom=check nosymm in
 tegral(ultrafinegrid)
 ----------------------------------------------------------------------

 -----------------------------------------------------
 Candidate Structure: Conf:34 Charge calc in gas phase
 -----------------------------------------------------
 Structure from the checkpoint file:  "conf-34.chk"
 Charge =  1 Multiplicity = 1

                          Input orientation:
 ---------------------------------------------------------------------
 Center     Atomic      Atomic             Coordinates (Angstroms)
 Number     Number       Type             X           Y           Z
 ---------------------------------------------------------------------
      1          7           0       14.519636   17.895834   12.538409
      2          6           0       13.896549   18.935127   13.435533
      3          6           0       13.897941   20.209849   12.567415
      4          8           0       14.992784   20.669838   12.262154
      5          6           0       14.713700   19.111263   14.730475
      6          6           0       14.200591   18.277577   15.914749
      7          6           0       14.190386   16.769537   15.707522
      8          8           0       14.516757   16.203063   14.679727
      9          8           0       13.756718   16.027371   16.736118
     10          1           0       13.538824   16.573698   17.511318
     11          1           0       14.700136   17.042197   13.099428
     12          1           0       12.897187   18.568767   13.669880
     13          1           0       14.675502   20.164859   15.021226
     14          1           0       15.769758   18.898710   14.535714
     15          1           0       14.807216   18.497782   16.803304
     16          1           0       13.173516   18.577961   16.168793
     17          1           0       13.840530   17.719800   11.760126
     18          1           0       15.389642   18.281008   12.150604
     19          7           0       12.712400   20.730893   12.172522
     20          6           0       11.390545   20.103114   12.227062
     21          6           0       11.463080   18.611439   11.824831
     22          8           0       12.313151   18.204507   11.010587
     23          6           0       10.422265   20.835430   11.276757
     24          6           0       10.191934   22.332500   11.570015
     25          6           0        9.207213   22.901125   10.537320
     26          6           0        9.692205   22.576410   13.000460
     27          1           0       12.823748   21.516878   11.541010
     28          1           0       11.001644   20.171581   13.250821
     29          1           0        9.459837   20.311782   11.333481
     30          1           0       10.791958   20.703568   10.251379
     31          1           0       11.143893   22.871539   11.446817
     32          1           0        9.066829   23.976873   10.685301
     33          1           0        9.563619   22.744902    9.512825
     34          1           0        8.225864   22.419492   10.629831
     35          1           0        9.471730   23.637626   13.155007
     36          1           0        8.769666   22.013798   13.193095
     37          1           0       10.433062   22.286254   13.754836
     38          7           0       10.580288   17.824628   12.440592
     39          6           0       10.465294   16.371856   12.287074
     40          6           0        9.349003   15.897394   13.252942
     41          8           0        8.793110   14.822374   12.997558
     42          6           0       11.805943   15.656892   12.639759
     43          6           0       11.665638   14.234073   13.216144
     44          6           0       11.346823   14.237878   14.735357
     45          7           0       10.372550   13.202599   15.107034
     46          6           0        9.168054   13.381546   15.664772
     47          7           0        8.694438   14.579489   16.000615
     48          7           0        8.455178   12.273825   16.004741
     49          8           0        9.219543   16.620138   14.307263
     50          1           0        9.994286   18.170884   13.200227
     51          1           0       10.179012   16.128649   11.261320
     52          1           0       12.332966   16.273170   13.377429
     53          1           0       12.429003   15.632478   11.740696
     54          1           0       10.868499   13.712442   12.680371
     55          1           0       12.601797   13.690273   13.048511
     56          1           0       10.941622   15.199689   15.045450
     57          1           0       12.260824   14.073249   15.316792
     58          1           0       10.537765   12.290748   14.700956
     59          1           0        8.858401   15.427567   15.386034
     60          1           0        7.824270   14.585701   16.516197
     61          1           0        7.446361   12.329036   15.998083
     62          1           0        8.844197   11.353498   15.856789
 ---------------------------------------------------------------------

 SCF Done:  E(RB3LYP) =  -1447.48208789     A.U. after    2 cycles

 Alpha  occ. eigenvalues --  -19.33516 -19.28476 -19.23783 -19.23037 -19.17799
 Alpha  occ. eigenvalues --  -19.16395 -14.55983 -14.48800 -14.48521 -14.48092
 Alpha  occ. eigenvalues --  -14.46482 -14.45569 -10.46755 -10.44242 -10.41526
 Alpha  occ. eigenvalues --  -10.39999 -10.38774 -10.35126 -10.34978 -10.34966
 Alpha  occ. eigenvalues --  -10.34026 -10.32500 -10.31066 -10.29149 -10.28759
 Alpha  occ. eigenvalues --  -10.28457 -10.28122 -10.26029 -10.25294  -1.24485
 Alpha  occ. eigenvalues --   -1.16583  -1.16124  -1.14563  -1.12670  -1.11045
 Alpha  occ. eigenvalues --   -1.10584  -1.04525  -1.03151  -1.02524  -1.01390
 Alpha  occ. eigenvalues --   -0.99900  -0.94590  -0.91074  -0.89271  -0.86926
 Alpha  occ. eigenvalues --   -0.85760  -0.82848  -0.79354  -0.77946  -0.76806
 Alpha  occ. eigenvalues --   -0.75452  -0.74708  -0.74066  -0.72504  -0.71355
 Alpha  occ. eigenvalues --   -0.70246  -0.69864  -0.68967  -0.67027  -0.66547
 Alpha  occ. eigenvalues --   -0.65876  -0.65061  -0.64101  -0.63435  -0.61634
 Alpha  occ. eigenvalues --   -0.61436  -0.60978  -0.60045  -0.59718  -0.58948
 Alpha  occ. eigenvalues --   -0.58535  -0.57851  -0.56815  -0.56105  -0.55223
 Alpha  occ. eigenvalues --   -0.54839  -0.54661  -0.53785  -0.53283  -0.52850
 Alpha  occ. eigenvalues --   -0.52822  -0.51885  -0.51139  -0.50754  -0.50622
 Alpha  occ. eigenvalues --   -0.50183  -0.49360  -0.48849  -0.48744  -0.48182
 Alpha  occ. eigenvalues --   -0.47911  -0.46735  -0.46549  -0.46233  -0.45841
 Alpha  occ. eigenvalues --   -0.45461  -0.45193  -0.43732  -0.43064  -0.42222
 Alpha  occ. eigenvalues --   -0.41919  -0.41790  -0.41559  -0.39235  -0.38101
 Alpha  occ. eigenvalues --   -0.37794  -0.36999  -0.36310  -0.36281  -0.33192
 Alpha  occ. eigenvalues --   -0.32477  -0.30441
 Alpha virt. eigenvalues --   -0.13519  -0.11372  -0.10005  -0.08939  -0.07200
 Alpha virt. eigenvalues --   -0.05371  -0.04970  -0.04106  -0.03049  -0.02167
 Alpha virt. eigenvalues --   -0.01677  -0.01162  -0.00853  -0.00087   0.00006

 Mulliken charges:
               1
     1  N   -0.778835
     2  C   -0.109119
     3  C    0.614026
     4  O   -0.501125
     5  C   -0.283468
     6  C   -0.430753
     7  C    0.649781
     8  O   -0.481194
     9  O   -0.538428
    10  H    0.437893
    11  H    0.439094
    12  H    0.197299
    13  H    0.208667
    14  H    0.193956
    15  H    0.212343
    16  H    0.201285
    17  H    0.450097
    18  H    0.405413
    19  N   -0.598547
    20  C   -0.031753
    21  C    0.599711
    22  O   -0.590074
    23  C   -0.302145
    24  C   -0.086396
    25  C   -0.446127
    26  C   -0.453145
    27  H    0.362208
    28  H    0.161574
    29  H    0.168066
    30  H    0.172800
    31  H    0.128590
    32  H    0.163342
    33  H    0.155271
    34  H    0.154611
    35  H    0.169030
    36  H    0.152289
    37  H    0.137915
    38  N   -0.603659
    39  C    0.013876
    40  C    0.570857
    41  O   -0.561574
    42  C   -0.311349
    43  C   -0.292634
    44  C   -0.163878
    45  N   -0.587424
    46  C    0.797491
    47  N   -0.770655
    48  N   -0.762522
    49  O   -0.644213
    50  H    0.361124
    51  H    0.185630
    52  H    0.117996
    53  H    0.161956
    54  H    0.198026
    55  H    0.150900
    56  H    0.186637
    57  H    0.184528
    58  H    0.346821
    59  H    0.434487
    60  H    0.349037
    61  H    0.372427
    62  H    0.361967
 Sum of Mulliken charges =   1.00000

 Dipole moment (field-independent basis, Debye):
    X=             57.7282    Y=             80.1772    Z=             72.7173  Tot=            122.6733
 Quadrupole moment (field-independent basis, Debye-Ang):
   XX=            554.5110   YY=           1240.9793   ZZ=            949.0894
   XY=            983.0937   XZ=            865.8626   YZ=           1192.9875

 Normal termination of Gaussian 16 at Tue May 24 03:31:22 2022.
