 Gaussian 16, Revision C.01,
 Gaussian 16:  ES64L-G16RevC.01  3-Jul-2019

 ----------------------------------------------------------------------
 # B3LYP/6-31G* empiricaldispersion=gd3 guess=read geom=check nosymm in
 tegral(ultrafinegrid)
 ----------------------------------------------------------------------

 ------------------------------------------------------
 Candidate Structure: Conf:364 Charge calc in gas phase
 ------------------------------------------------------
 Structure from the checkpoint file:  "conf-364.chk"
 Charge =  1 Multiplicity = 1

                          Input orientation:
 ---------------------------------------------------------------------
 Center     Atomic      Atomic             Coordinates (Angstroms)
 Number     Number       Type             X           Y           Z
 ---------------------------------------------------------------------
      1          7           0        9.884339   17.228519   15.995089
      2          6           0       11.313663   16.742106   16.074042
      3          6           0       11.168530   15.207757   16.103993
      4          8           0       10.562801   14.724299   17.053476
      5          6           0       12.061231   17.233130   17.319341
      6          6           0       12.057699   18.767447   17.562241
      7          6           0       12.156442   19.526790   16.261867
      8          8           0       11.152966   19.676595   15.549569
      9          8           0       13.358440   19.925683   15.921555
     10          1           0       13.367118   20.325192   14.991866
     11          1           0        9.870221   18.261915   15.979764
     12          1           0       11.787755   17.122643   15.170377
     13          1           0       13.094316   16.887787   17.202051
     14          1           0       11.656058   16.726129   18.199869
     15          1           0       11.123232   19.073857   18.042666
     16          1           0       12.883322   19.028332   18.227406
     17          1           0        9.507189   16.855139   15.090750
     18          1           0        9.344504   16.835885   16.775963
     19          7           0       11.706744   14.499498   15.087510
     20          6           0       12.103068   15.010351   13.774405
     21          6           0       11.035872   15.975599   13.189293
     22          8           0        9.849328   15.926765   13.565160
     23          6           0       12.292968   13.790325   12.839629
     24          6           0       12.884552   14.056929   11.441750
     25          6           0       14.284887   14.686587   11.500269
     26          6           0       12.925308   12.734285   10.659750
     27          1           0       11.498314   13.507561   15.147442
     28          1           0       13.059562   15.538978   13.866330
     29          1           0       11.315597   13.300335   12.734976
     30          1           0       12.953354   13.085267   13.363949
     31          1           0       12.215910   14.740244   10.902093
     32          1           0       14.292763   15.689247   11.944679
     33          1           0       14.970179   14.056909   12.081770
     34          1           0       14.700075   14.787979   10.492553
     35          1           0       11.930565   12.280599   10.584911
     36          1           0       13.297648   12.897773    9.643283
     37          1           0       13.591033   12.010757   11.146599
     38          7           0       11.529315   16.825526   12.285292
     39          6           0       10.878256   17.564904   11.193566
     40          6           0       11.906705   18.643219   10.735602
     41          8           0       11.456841   19.491175    9.920212
     42          6           0        9.478705   18.137239   11.459394
     43          6           0        9.298656   19.212790   12.542566
     44          6           0        9.957932   20.591071   12.305848
     45          7           0       11.302335   20.629520   12.899272
     46          6           0       12.454620   20.988088   12.385831
     47          7           0       12.615387   21.494659   11.164432
     48          7           0       13.579185   20.734791   13.238158
     49          8           0       13.055170   18.597713   11.258683
     50          1           0       12.540055   16.896970   12.169438
     51          1           0       10.764286   16.862501   10.354907
     52          1           0        8.812860   17.306385   11.707760
     53          1           0        9.150973   18.548131   10.499985
     54          1           0        8.220863   19.389272   12.637034
     55          1           0        9.625219   18.823500   13.515636
     56          1           0        9.373928   21.372531   12.804619
     57          1           0       10.011870   20.820825   11.243424
     58          1           0       11.336780   20.305893   13.869853
     59          1           0       12.038538   20.990925   10.436125
     60          1           0       13.582461   21.530996   10.860720
     61          1           0       14.285291   21.464450   13.129439
     62          1           0       13.970877   19.865186   12.846169
 ---------------------------------------------------------------------

 SCF Done:  E(RB3LYP) =  -1447.49427530     A.U. after    1 cycles

 Alpha  occ. eigenvalues --  -19.33103 -19.29619 -19.24785 -19.24361 -19.19514
 Alpha  occ. eigenvalues --  -19.19217 -14.58132 -14.50793 -14.50286 -14.48950
 Alpha  occ. eigenvalues --  -14.47839 -14.47389 -10.47382 -10.45868 -10.42423
 Alpha  occ. eigenvalues --  -10.41302 -10.39855 -10.37312 -10.36186 -10.34719
 Alpha  occ. eigenvalues --  -10.34341 -10.34256 -10.32643 -10.30286 -10.30221
 Alpha  occ. eigenvalues --  -10.29009 -10.28404 -10.26767 -10.25885  -1.25089
 Alpha  occ. eigenvalues --   -1.17592  -1.16173  -1.15551  -1.14802  -1.12691
 Alpha  occ. eigenvalues --   -1.12437  -1.05586  -1.04841  -1.04586  -1.03190
 Alpha  occ. eigenvalues --   -1.01965  -0.95168  -0.91940  -0.90481  -0.88213
 Alpha  occ. eigenvalues --   -0.86769  -0.84472  -0.80358  -0.79399  -0.77516
 Alpha  occ. eigenvalues --   -0.75795  -0.74929  -0.74193  -0.73969  -0.72831
 Alpha  occ. eigenvalues --   -0.71518  -0.70759  -0.69192  -0.67275  -0.66482
 Alpha  occ. eigenvalues --   -0.66384  -0.65550  -0.64944  -0.64624  -0.63497
 Alpha  occ. eigenvalues --   -0.62543  -0.62062  -0.61417  -0.60929  -0.59929
 Alpha  occ. eigenvalues --   -0.59584  -0.59033  -0.57916  -0.56924  -0.56733
 Alpha  occ. eigenvalues --   -0.56658  -0.55180  -0.54862  -0.54101  -0.54017
 Alpha  occ. eigenvalues --   -0.53001  -0.52754  -0.52381  -0.52015  -0.51158
 Alpha  occ. eigenvalues --   -0.50817  -0.50429  -0.50301  -0.49754  -0.49616
 Alpha  occ. eigenvalues --   -0.48894  -0.48292  -0.47359  -0.47163  -0.46652
 Alpha  occ. eigenvalues --   -0.46415  -0.45944  -0.44808  -0.44148  -0.44131
 Alpha  occ. eigenvalues --   -0.43031  -0.42966  -0.42424  -0.42217  -0.39583
 Alpha  occ. eigenvalues --   -0.39169  -0.38677  -0.37754  -0.37313  -0.35063
 Alpha  occ. eigenvalues --   -0.33876  -0.33270
 Alpha virt. eigenvalues --   -0.14624  -0.13681  -0.12291  -0.11389  -0.07581
 Alpha virt. eigenvalues --   -0.06563  -0.05086  -0.04002  -0.02305  -0.01751
 Alpha virt. eigenvalues --   -0.01521  -0.00996  -0.00714  -0.00304   0.00291

 Mulliken charges:
               1
     1  N   -0.773774
     2  C   -0.122223
     3  C    0.624842
     4  O   -0.501974
     5  C   -0.300402
     6  C   -0.362208
     7  C    0.603546
     8  O   -0.534177
     9  O   -0.556628
    10  H    0.472141
    11  H    0.424900
    12  H    0.196448
    13  H    0.202514
    14  H    0.216536
    15  H    0.191046
    16  H    0.218885
    17  H    0.451279
    18  H    0.410321
    19  N   -0.597101
    20  C   -0.038724
    21  C    0.602200
    22  O   -0.585662
    23  C   -0.306918
    24  C   -0.094874
    25  C   -0.460749
    26  C   -0.448107
    27  H    0.363193
    28  H    0.166939
    29  H    0.170833
    30  H    0.165090
    31  H    0.144206
    32  H    0.136041
    33  H    0.154361
    34  H    0.174607
    35  H    0.155444
    36  H    0.165242
    37  H    0.154011
    38  N   -0.609229
    39  C   -0.057188
    40  C    0.625425
    41  O   -0.594610
    42  C   -0.271528
    43  C   -0.292639
    44  C   -0.161641
    45  N   -0.561545
    46  C    0.651945
    47  N   -0.688328
    48  N   -0.836866
    49  O   -0.630461
    50  H    0.370256
    51  H    0.189362
    52  H    0.173975
    53  H    0.184262
    54  H    0.171219
    55  H    0.112057
    56  H    0.185253
    57  H    0.220480
    58  H    0.412782
    59  H    0.411862
    60  H    0.355366
    61  H    0.363401
    62  H    0.395288
 Sum of Mulliken charges =   1.00000

 Dipole moment (field-independent basis, Debye):
    X=             57.3517    Y=             88.1910    Z=             70.9949  Tot=            126.9139
 Quadrupole moment (field-independent basis, Debye-Ang):
   XX=            534.4909   YY=           1487.1154   ZZ=            890.4715
   XY=           1053.2144   XZ=            839.9272   YZ=           1308.2888

 Normal termination of Gaussian 16 at Tue May 24 03:32:27 2022.
