 Gaussian 16, Revision C.01,
 Gaussian 16:  ES64L-G16RevC.01  3-Jul-2019

 ----------------------------------------------------------------------
 # B3LYP/6-31G* empiricaldispersion=gd3 guess=read geom=check nosymm in
 tegral(ultrafinegrid)
 ----------------------------------------------------------------------

 ------------------------------------------------------
 Candidate Structure: Conf:156 Charge calc in gas phase
 ------------------------------------------------------
 Structure from the checkpoint file:  "conf-156.chk"
 Charge =  1 Multiplicity = 1

                          Input orientation:
 ---------------------------------------------------------------------
 Center     Atomic      Atomic             Coordinates (Angstroms)
 Number     Number       Type             X           Y           Z
 ---------------------------------------------------------------------
      1          7           0       11.643492   17.664915   10.168395
      2          6           0       11.234339   16.449058   10.968871
      3          6           0       12.459489   15.520538   10.833401
      4          8           0       12.787752   15.209026    9.693480
      5          6           0        9.975347   15.751582   10.438625
      6          6           0        8.732046   16.659521   10.224511
      7          6           0        8.695815   17.775953   11.239045
      8          8           0        9.198104   18.875938   11.020910
      9          8           0        8.188701   17.428290   12.419165
     10          1           0        8.331339   18.169728   13.062616
     11          1           0       10.879823   18.360494   10.117206
     12          1           0       11.069748   16.814384   11.981672
     13          1           0        9.737480   14.974798   11.173052
     14          1           0       10.217726   15.243188    9.500989
     15          1           0        8.762124   17.126560    9.236657
     16          1           0        7.828236   16.048694   10.287791
     17          1           0       12.465152   18.054898   10.684872
     18          1           0       11.951083   17.358010    9.236355
     19          7           0       13.077402   15.094290   11.956146
     20          6           0       13.010908   15.710503   13.276878
     21          6           0       13.324037   17.242239   13.205186
     22          8           0       13.567609   17.796350   12.115267
     23          6           0       13.971515   14.962502   14.224555
     24          6           0       13.692125   13.454778   14.394253
     25          6           0       14.735135   12.852532   15.347484
     26          6           0       12.267258   13.183751   14.896892
     27          1           0       13.909416   14.548374   11.754528
     28          1           0       11.990957   15.605511   13.668576
     29          1           0       13.922828   15.436597   15.210813
     30          1           0       14.998100   15.116905   13.864236
     31          1           0       13.806204   12.961066   13.418366
     32          1           0       14.648852   13.292214   16.348983
     33          1           0       14.594248   11.771089   15.444476
     34          1           0       15.756198   13.028247   14.990019
     35          1           0       11.504999   13.495172   14.172434
     36          1           0       12.120967   12.114142   15.078878
     37          1           0       12.078101   13.710234   15.841439
     38          7           0       13.253698   17.847311   14.389798
     39          6           0       13.480570   19.248795   14.789177
     40          6           0       12.738542   19.462256   16.150229
     41          8           0       12.930023   20.516960   16.739803
     42          6           0       12.958591   20.319117   13.800060
     43          6           0       11.455629   20.626752   13.927130
     44          6           0       10.564440   19.390701   13.784226
     45          7           0        9.138569   19.664351   14.097123
     46          6           0        8.738269   19.829932   15.409786
     47          7           0        9.457817   19.405843   16.422398
     48          7           0        7.535445   20.417609   15.595817
     49          8           0       11.879466   18.527320   16.431710
     50          1           0       12.864337   17.327808   15.176497
     51          1           0       14.555590   19.396215   14.928948
     52          1           0       13.222878   20.030813   12.780454
     53          1           0       13.498471   21.240932   14.032336
     54          1           0       11.280278   21.091071   14.902992
     55          1           0       11.170512   21.364263   13.164532
     56          1           0       10.886677   18.584813   14.439183
     57          1           0       10.582486   19.031313   12.757370
     58          1           0        8.754757   20.379277   13.481843
     59          1           0       10.509149   19.051792   16.423115
     60          1           0        9.060558   19.498046   17.350334
     61          1           0        7.162022   20.553195   16.524371
     62          1           0        6.902013   20.576616   14.825850
 ---------------------------------------------------------------------

 SCF Done:  E(RB3LYP) =  -1447.48173531     A.U. after    2 cycles

 Alpha  occ. eigenvalues --  -19.33356 -19.28680 -19.24632 -19.24048 -19.18643
 Alpha  occ. eigenvalues --  -19.16818 -14.57870 -14.51960 -14.51924 -14.48894
 Alpha  occ. eigenvalues --  -14.48735 -14.46671 -10.47529 -10.46705 -10.42289
 Alpha  occ. eigenvalues --  -10.40798 -10.39726 -10.35879 -10.35610 -10.34460
 Alpha  occ. eigenvalues --  -10.34109 -10.33998 -10.31483 -10.29838 -10.29077
 Alpha  occ. eigenvalues --  -10.28790 -10.28002 -10.26576 -10.25664  -1.24794
 Alpha  occ. eigenvalues --   -1.17439  -1.15798  -1.15628  -1.15029  -1.12412
 Alpha  occ. eigenvalues --   -1.11177  -1.05439  -1.05414  -1.03881  -1.03321
 Alpha  occ. eigenvalues --   -1.01732  -0.94948  -0.91618  -0.90157  -0.87879
 Alpha  occ. eigenvalues --   -0.86322  -0.83769  -0.79962  -0.79009  -0.77411
 Alpha  occ. eigenvalues --   -0.76796  -0.75326  -0.74085  -0.73649  -0.72796
 Alpha  occ. eigenvalues --   -0.71808  -0.71305  -0.70521  -0.69863  -0.66622
 Alpha  occ. eigenvalues --   -0.66433  -0.64934  -0.64538  -0.64125  -0.62983
 Alpha  occ. eigenvalues --   -0.62620  -0.61922  -0.61284  -0.60709  -0.59791
 Alpha  occ. eigenvalues --   -0.59294  -0.58839  -0.57912  -0.57771  -0.56634
 Alpha  occ. eigenvalues --   -0.56200  -0.55371  -0.54710  -0.54164  -0.53749
 Alpha  occ. eigenvalues --   -0.53201  -0.52371  -0.51919  -0.51751  -0.51132
 Alpha  occ. eigenvalues --   -0.50709  -0.49968  -0.49591  -0.49304  -0.48916
 Alpha  occ. eigenvalues --   -0.48417  -0.47607  -0.47023  -0.46626  -0.46211
 Alpha  occ. eigenvalues --   -0.45881  -0.45749  -0.44706  -0.44026  -0.42662
 Alpha  occ. eigenvalues --   -0.42227  -0.42056  -0.41976  -0.41660  -0.40579
 Alpha  occ. eigenvalues --   -0.39261  -0.38604  -0.36896  -0.36425  -0.34235
 Alpha  occ. eigenvalues --   -0.33233  -0.30630
 Alpha virt. eigenvalues --   -0.14337  -0.12409  -0.11882  -0.10304  -0.08424
 Alpha virt. eigenvalues --   -0.07211  -0.04961  -0.04095  -0.03696  -0.02894
 Alpha virt. eigenvalues --   -0.02574  -0.01886  -0.00949  -0.00630  -0.00281

 Mulliken charges:
               1
     1  N   -0.769152
     2  C   -0.122524
     3  C    0.628040
     4  O   -0.506191
     5  C   -0.293723
     6  C   -0.359231
     7  C    0.577135
     8  O   -0.501509
     9  O   -0.558377
    10  H    0.450726
    11  H    0.421957
    12  H    0.193243
    13  H    0.201681
    14  H    0.215141
    15  H    0.193211
    16  H    0.215447
    17  H    0.448333
    18  H    0.411528
    19  N   -0.583732
    20  C   -0.079574
    21  C    0.633579
    22  O   -0.592810
    23  C   -0.305216
    24  C   -0.077914
    25  C   -0.448217
    26  C   -0.453967
    27  H    0.362253
    28  H    0.173105
    29  H    0.168185
    30  H    0.164313
    31  H    0.133269
    32  H    0.155416
    33  H    0.164274
    34  H    0.154874
    35  H    0.131750
    36  H    0.170277
    37  H    0.152184
    38  N   -0.607551
    39  C   -0.040355
    40  C    0.582123
    41  O   -0.507891
    42  C   -0.285543
    43  C   -0.302217
    44  C   -0.192290
    45  N   -0.661413
    46  C    0.797731
    47  N   -0.771891
    48  N   -0.765261
    49  O   -0.657529
    50  H    0.366467
    51  H    0.191604
    52  H    0.162948
    53  H    0.188250
    54  H    0.190499
    55  H    0.144577
    56  H    0.197403
    57  H    0.152772
    58  H    0.357685
    59  H    0.476098
    60  H    0.362013
    61  H    0.380823
    62  H    0.373165
 Sum of Mulliken charges =   1.00000

 Dipole moment (field-independent basis, Debye):
    X=             44.1373    Y=             84.8144    Z=             60.1467  Tot=            112.9566
 Quadrupole moment (field-independent basis, Debye-Ang):
   XX=            259.6063   YY=           1352.0803   ZZ=            600.7112
   XY=            743.7525   XZ=            528.5273   YZ=           1059.8244

 Normal termination of Gaussian 16 at Tue May 24 03:31:32 2022.
