 Gaussian 16, Revision C.01,
 Gaussian 16:  ES64L-G16RevC.01  3-Jul-2019

 ----------------------------------------------------------------------
 # B3LYP/6-31G* empiricaldispersion=gd3 guess=read geom=check nosymm in
 tegral(ultrafinegrid)
 ----------------------------------------------------------------------

 ------------------------------------------------------
 Candidate Structure: Conf:807 Charge calc in gas phase
 ------------------------------------------------------
 Structure from the checkpoint file:  "conf-807.chk"
 Charge =  1 Multiplicity = 1

                          Input orientation:
 ---------------------------------------------------------------------
 Center     Atomic      Atomic             Coordinates (Angstroms)
 Number     Number       Type             X           Y           Z
 ---------------------------------------------------------------------
      1          7           0        9.540547   19.646128   12.527333
      2          6           0        9.522970   18.345701   11.760645
      3          6           0       10.154978   18.715944   10.399627
      4          8           0        9.540042   19.517233    9.704935
      5          6           0        8.114116   17.784965   11.529846
      6          6           0        7.212639   17.610247   12.781756
      7          6           0        7.987487   17.050289   13.956437
      8          8           0        8.784280   17.741724   14.570104
      9          8           0        7.863315   15.758043   14.292715
     10          1           0        7.177339   15.305742   13.771193
     11          1           0        9.050038   20.372136   11.991245
     12          1           0       10.125814   17.659876   12.354551
     13          1           0        8.252591   16.814562   11.039517
     14          1           0        7.595135   18.426132   10.811451
     15          1           0        6.820760   18.579666   13.106404
     16          1           0        6.348919   16.993400   12.514117
     17          1           0        9.141217   19.518226   13.466161
     18          1           0       10.566569   19.906061   12.602866
     19          7           0       11.323333   18.129634   10.061664
     20          6           0       12.293800   17.517699   10.975458
     21          6           0       12.498864   18.385246   12.246745
     22          8           0       12.203894   19.602358   12.242838
     23          6           0       13.625014   17.362022   10.199501
     24          6           0       14.752020   16.562071   10.882150
     25          6           0       14.343206   15.116213   11.202829
     26          6           0       15.991282   16.580782    9.973045
     27          1           0       11.695267   18.488773    9.187331
     28          1           0       11.937526   16.523240   11.268642
     29          1           0       13.986928   18.370865    9.958792
     30          1           0       13.383491   16.869699    9.246725
     31          1           0       15.021333   17.063039   11.820448
     32          1           0       14.001580   14.598689   10.296995
     33          1           0       15.196862   14.560794   11.603517
     34          1           0       13.550060   15.047411   11.956101
     35          1           0       15.787556   16.076385    9.020066
     36          1           0       16.312695   17.604844    9.751140
     37          1           0       16.828043   16.062316   10.452079
     38          7           0       12.991509   17.716209   13.279651
     39          6           0       13.674846   18.185327   14.492714
     40          6           0       13.814324   16.904956   15.380192
     41          8           0       14.165370   17.121599   16.573287
     42          6           0       13.057416   19.378719   15.229912
     43          6           0       11.621439   19.247560   15.760026
     44          6           0       11.369104   18.260732   16.921470
     45          7           0       10.941437   16.943208   16.429589
     46          6           0       11.288148   15.734483   16.879548
     47          7           0       12.346155   15.551032   17.669367
     48          7           0       10.484882   14.683100   16.559622
     49          8           0       13.516403   15.811363   14.843088
     50          1           0       13.085585   16.692093   13.258071
     51          1           0       14.689607   18.487918   14.197606
     52          1           0       13.091125   20.246580   14.564541
     53          1           0       13.728463   19.579641   16.070209
     54          1           0       11.320481   20.241414   16.113455
     55          1           0       10.941706   19.001352   14.934428
     56          1           0       10.566706   18.647197   17.562392
     57          1           0       12.266499   18.145903   17.525966
     58          1           0       10.167153   16.981656   15.774481
     59          1           0       13.206893   16.120067   17.423369
     60          1           0       12.523780   14.601200   17.969421
     61          1           0       10.921167   13.779461   16.436703
     62          1           0        9.658991   14.847413   15.998640
 ---------------------------------------------------------------------

 SCF Done:  E(RB3LYP) =  -1447.48565855     A.U. after    1 cycles

 Alpha  occ. eigenvalues --  -19.37046 -19.31267 -19.24967 -19.23772 -19.17051
 Alpha  occ. eigenvalues --  -19.16868 -14.58388 -14.48898 -14.48153 -14.47650
 Alpha  occ. eigenvalues --  -14.46269 -14.44691 -10.49558 -10.43437 -10.42621
 Alpha  occ. eigenvalues --  -10.40564 -10.40404 -10.37046 -10.36137 -10.35783
 Alpha  occ. eigenvalues --  -10.34961 -10.32177 -10.30980 -10.29731 -10.28911
 Alpha  occ. eigenvalues --  -10.28257 -10.27026 -10.25871 -10.25292  -1.27625
 Alpha  occ. eigenvalues --   -1.19198  -1.17680  -1.14953  -1.12914  -1.12173
 Alpha  occ. eigenvalues --   -1.10460  -1.05473  -1.03415  -1.01843  -1.01324
 Alpha  occ. eigenvalues --   -0.99450  -0.96575  -0.91367  -0.89201  -0.88833
 Alpha  occ. eigenvalues --   -0.85737  -0.83082  -0.80730  -0.78603  -0.77976
 Alpha  occ. eigenvalues --   -0.76731  -0.75051  -0.74298  -0.73483  -0.72055
 Alpha  occ. eigenvalues --   -0.71582  -0.70440  -0.69155  -0.68214  -0.66235
 Alpha  occ. eigenvalues --   -0.65950  -0.65423  -0.64301  -0.64177  -0.63481
 Alpha  occ. eigenvalues --   -0.62229  -0.61534  -0.60939  -0.60228  -0.60130
 Alpha  occ. eigenvalues --   -0.59462  -0.58738  -0.57828  -0.56630  -0.56117
 Alpha  occ. eigenvalues --   -0.55572  -0.54964  -0.54605  -0.53825  -0.53731
 Alpha  occ. eigenvalues --   -0.53448  -0.52416  -0.52049  -0.51815  -0.51457
 Alpha  occ. eigenvalues --   -0.50678  -0.50394  -0.49331  -0.49044  -0.48606
 Alpha  occ. eigenvalues --   -0.48444  -0.47497  -0.47201  -0.46679  -0.46122
 Alpha  occ. eigenvalues --   -0.45275  -0.45046  -0.44404  -0.43453  -0.42691
 Alpha  occ. eigenvalues --   -0.42290  -0.41715  -0.41459  -0.39243  -0.38892
 Alpha  occ. eigenvalues --   -0.38645  -0.37222  -0.36526  -0.36239  -0.32666
 Alpha  occ. eigenvalues --   -0.31612  -0.31248
 Alpha virt. eigenvalues --   -0.16759  -0.12759  -0.10942  -0.10302  -0.08568
 Alpha virt. eigenvalues --   -0.07163  -0.04496  -0.03948  -0.02982  -0.02550
 Alpha virt. eigenvalues --   -0.01975  -0.01288  -0.00988  -0.00420   0.00123

 Mulliken charges:
               1
     1  N   -0.771675
     2  C   -0.111720
     3  C    0.620938
     4  O   -0.502708
     5  C   -0.299968
     6  C   -0.397565
     7  C    0.625584
     8  O   -0.473420
     9  O   -0.547297
    10  H    0.446308
    11  H    0.409385
    12  H    0.203350
    13  H    0.195749
    14  H    0.224605
    15  H    0.207706
    16  H    0.194652
    17  H    0.417069
    18  H    0.458438
    19  N   -0.593712
    20  C   -0.041739
    21  C    0.603446
    22  O   -0.599941
    23  C   -0.306401
    24  C   -0.093794
    25  C   -0.460469
    26  C   -0.448399
    27  H    0.363577
    28  H    0.166900
    29  H    0.168981
    30  H    0.161719
    31  H    0.150294
    32  H    0.145267
    33  H    0.175527
    34  H    0.146048
    35  H    0.150749
    36  H    0.153651
    37  H    0.165853
    38  N   -0.611148
    39  C   -0.054659
    40  C    0.622945
    41  O   -0.607297
    42  C   -0.271359
    43  C   -0.292875
    44  C   -0.144889
    45  N   -0.619275
    46  C    0.766979
    47  N   -0.746383
    48  N   -0.770436
    49  O   -0.605616
    50  H    0.383640
    51  H    0.184551
    52  H    0.161179
    53  H    0.184445
    54  H    0.157166
    55  H    0.102285
    56  H    0.166068
    57  H    0.223444
    58  H    0.369859
    59  H    0.425238
    60  H    0.347105
    61  H    0.366118
    62  H    0.355926
 Sum of Mulliken charges =   1.00000

 Dipole moment (field-independent basis, Debye):
    X=             42.4774    Y=             81.4325    Z=             62.7825  Tot=            111.2529
 Quadrupole moment (field-independent basis, Debye-Ang):
   XX=            221.3824   YY=           1235.6442   ZZ=            667.4860
   XY=            719.1572   XZ=            538.1534   YZ=           1060.0276

 Normal termination of Gaussian 16 at Tue May 24 03:31:40 2022.
