 Gaussian 16, Revision C.01,
 Gaussian 16:  ES64L-G16RevC.01  3-Jul-2019

 ----------------------------------------------------------------------
 # B3LYP/6-31G* empiricaldispersion=gd3 guess=read geom=check nosymm in
 tegral(ultrafinegrid)
 ----------------------------------------------------------------------

 ------------------------------------------------------
 Candidate Structure: Conf:876 Charge calc in gas phase
 ------------------------------------------------------
 Structure from the checkpoint file:  "conf-876.chk"
 Charge =  1 Multiplicity = 1

                          Input orientation:
 ---------------------------------------------------------------------
 Center     Atomic      Atomic             Coordinates (Angstroms)
 Number     Number       Type             X           Y           Z
 ---------------------------------------------------------------------
      1          7           0        9.846745   16.219469   16.203640
      2          6           0        9.411187   17.099266   15.056427
      3          6           0        9.252067   18.477808   15.734703
      4          8           0        8.402833   18.564694   16.617231
      5          6           0        8.103779   16.616870   14.428555
      6          6           0        7.621564   17.537970   13.297109
      7          6           0        8.571921   17.650317   12.112591
      8          8           0        9.687247   17.159443   12.075973
      9          8           0        8.145390   18.356334   11.060246
     10          1           0        7.241422   18.695800   11.184939
     11          1           0        9.215942   16.378020   17.001625
     12          1           0       10.208189   17.054523   14.322065
     13          1           0        7.325585   16.589336   15.197849
     14          1           0        8.243046   15.601876   14.037762
     15          1           0        6.653428   17.175696   12.928770
     16          1           0        7.438311   18.550986   13.681389
     17          1           0        9.873701   15.223718   15.966984
     18          1           0       10.819755   16.573152   16.442084
     19          7           0       10.044740   19.488405   15.321358
     20          6           0       11.264730   19.374391   14.515283
     21          6           0       12.147437   18.189821   14.995703
     22          8           0       12.028140   17.704217   16.143901
     23          6           0       12.019431   20.721304   14.583977
     24          6           0       13.180270   20.914572   13.585840
     25          6           0       12.723915   20.805327   12.122067
     26          6           0       13.834808   22.280748   13.842879
     27          1           0        9.940544   20.328971   15.881740
     28          1           0       10.978069   19.179936   13.476441
     29          1           0       12.387221   20.852014   15.610331
     30          1           0       11.280354   21.515174   14.402929
     31          1           0       13.940257   20.144443   13.764820
     32          1           0       11.933641   21.535845   11.904797
     33          1           0       13.564393   21.004613   11.450588
     34          1           0       12.349907   19.808252   11.860252
     35          1           0       13.125982   23.098208   13.659249
     36          1           0       14.190435   22.367766   14.875817
     37          1           0       14.692887   22.427316   13.179181
     38          7           0       12.965864   17.737337   14.059470
     39          6           0       14.032263   16.737770   14.145608
     40          6           0       14.626597   16.707158   12.691922
     41          8           0       15.255728   15.664330   12.376323
     42          6           0       13.607717   15.357838   14.664512
     43          6           0       12.409120   14.660323   13.996324
     44          6           0       12.508127   14.334477   12.494747
     45          7           0       12.119997   15.490747   11.680435
     46          6           0       12.663992   15.923081   10.538117
     47          7           0       13.832773   15.443643   10.095580
     48          7           0       11.955825   16.813249    9.799707
     49          8           0       14.343900   17.694516   11.965191
     50          1           0       13.069779   18.214348   13.151914
     51          1           0       14.813135   17.115310   14.818919
     52          1           0       13.392638   15.441835   15.735531
     53          1           0       14.488704   14.719121   14.554397
     54          1           0       12.255669   13.708657   14.521157
     55          1           0       11.489783   15.247407   14.157247
     56          1           0       11.833382   13.503111   12.252462
     57          1           0       13.524533   14.037268   12.244546
     58          1           0       11.280186   15.975765   11.972674
     59          1           0       14.575714   15.362342   10.833974
     60          1           0       14.166975   15.844877    9.228108
     61          1           0       12.486738   17.493578    9.271818
     62          1           0       11.078241   17.152148   10.178980
 ---------------------------------------------------------------------

 SCF Done:  E(RB3LYP) =  -1447.49109427     A.U. after    2 cycles

 Alpha  occ. eigenvalues --  -19.34884 -19.29970 -19.25553 -19.24219 -19.17391
 Alpha  occ. eigenvalues --  -19.17235 -14.59256 -14.49659 -14.48303 -14.47871
 Alpha  occ. eigenvalues --  -14.46559 -14.45173 -10.48252 -10.43760 -10.43109
 Alpha  occ. eigenvalues --  -10.40885 -10.40053 -10.36268 -10.36032 -10.35613
 Alpha  occ. eigenvalues --  -10.35359 -10.33197 -10.31389 -10.30644 -10.30102
 Alpha  occ. eigenvalues --  -10.28535 -10.28070 -10.26438 -10.25575  -1.25939
 Alpha  occ. eigenvalues --   -1.18306  -1.17539  -1.15441  -1.13500  -1.12631
 Alpha  occ. eigenvalues --   -1.10789  -1.06073  -1.03895  -1.02300  -1.01615
 Alpha  occ. eigenvalues --   -0.99814  -0.96370  -0.91786  -0.89892  -0.88492
 Alpha  occ. eigenvalues --   -0.86277  -0.83666  -0.80875  -0.78779  -0.77215
 Alpha  occ. eigenvalues --   -0.77112  -0.75506  -0.74414  -0.73919  -0.72566
 Alpha  occ. eigenvalues --   -0.71778  -0.71287  -0.69094  -0.67275  -0.66721
 Alpha  occ. eigenvalues --   -0.66337  -0.65795  -0.64971  -0.64136  -0.63309
 Alpha  occ. eigenvalues --   -0.62215  -0.61656  -0.60964  -0.60510  -0.59890
 Alpha  occ. eigenvalues --   -0.59437  -0.58275  -0.57582  -0.56756  -0.56595
 Alpha  occ. eigenvalues --   -0.55502  -0.55171  -0.55120  -0.54282  -0.54056
 Alpha  occ. eigenvalues --   -0.52805  -0.52635  -0.52294  -0.52146  -0.51627
 Alpha  occ. eigenvalues --   -0.50860  -0.50817  -0.50082  -0.49543  -0.49121
 Alpha  occ. eigenvalues --   -0.48037  -0.47547  -0.47274  -0.46987  -0.46802
 Alpha  occ. eigenvalues --   -0.45709  -0.44998  -0.44511  -0.43714  -0.43526
 Alpha  occ. eigenvalues --   -0.42680  -0.42145  -0.41884  -0.39727  -0.39305
 Alpha  occ. eigenvalues --   -0.39041  -0.37745  -0.37196  -0.36835  -0.33091
 Alpha  occ. eigenvalues --   -0.32010  -0.31510
 Alpha virt. eigenvalues --   -0.14949  -0.13390  -0.11228  -0.09623  -0.09030
 Alpha virt. eigenvalues --   -0.08095  -0.04705  -0.04111  -0.03537  -0.03100
 Alpha virt. eigenvalues --   -0.02211  -0.01876  -0.01022  -0.00427   0.00291

 Mulliken charges:
               1
     1  N   -0.761160
     2  C   -0.125623
     3  C    0.615889
     4  O   -0.508613
     5  C   -0.275969
     6  C   -0.434281
     7  C    0.636391
     8  O   -0.480391
     9  O   -0.533175
    10  H    0.442787
    11  H    0.414797
    12  H    0.235954
    13  H    0.200920
    14  H    0.173500
    15  H    0.214556
    16  H    0.223113
    17  H    0.402331
    18  H    0.459644
    19  N   -0.604456
    20  C   -0.043963
    21  C    0.604941
    22  O   -0.606573
    23  C   -0.304938
    24  C   -0.097485
    25  C   -0.452070
    26  C   -0.449879
    27  H    0.363032
    28  H    0.173593
    29  H    0.171221
    30  H    0.155250
    31  H    0.159148
    32  H    0.141062
    33  H    0.177329
    34  H    0.131181
    35  H    0.148490
    36  H    0.155123
    37  H    0.167670
    38  N   -0.618808
    39  C   -0.044871
    40  C    0.612292
    41  O   -0.594902
    42  C   -0.270213
    43  C   -0.300201
    44  C   -0.136516
    45  N   -0.624104
    46  C    0.756127
    47  N   -0.737246
    48  N   -0.768375
    49  O   -0.608510
    50  H    0.398126
    51  H    0.189509
    52  H    0.145198
    53  H    0.194821
    54  H    0.160380
    55  H    0.081270
    56  H    0.165761
    57  H    0.225379
    58  H    0.386320
    59  H    0.415358
    60  H    0.350351
    61  H    0.368341
    62  H    0.365168
 Sum of Mulliken charges =   1.00000

 Dipole moment (field-independent basis, Debye):
    X=             43.8388    Y=             82.5222    Z=             64.5310  Tot=            113.5606
 Quadrupole moment (field-independent basis, Debye-Ang):
   XX=            228.7471   YY=           1276.6311   ZZ=            725.7665
   XY=            758.1108   XZ=            589.5420   YZ=           1097.1887

 Normal termination of Gaussian 16 at Tue May 24 03:31:37 2022.
