 Gaussian 16, Revision C.01,
 Gaussian 16:  ES64L-G16RevC.01  3-Jul-2019

 ----------------------------------------------------------------------
 # B3LYP/6-31G* empiricaldispersion=gd3 guess=read geom=check nosymm in
 tegral(ultrafinegrid)
 ----------------------------------------------------------------------

 ------------------------------------------------------
 Candidate Structure: Conf:472 Charge calc in gas phase
 ------------------------------------------------------
 Structure from the checkpoint file:  "conf-472.chk"
 Charge =  1 Multiplicity = 1

                          Input orientation:
 ---------------------------------------------------------------------
 Center     Atomic      Atomic             Coordinates (Angstroms)
 Number     Number       Type             X           Y           Z
 ---------------------------------------------------------------------
      1          7           0       13.931918   17.154899   10.545834
      2          6           0       13.582592   15.986009   11.432578
      3          6           0       14.916833   15.662774   12.135765
      4          8           0       15.838830   15.289920   11.417012
      5          6           0       13.066032   14.793682   10.607667
      6          6           0       11.544600   14.773697   10.398449
      7          6           0       10.957960   15.929731    9.618020
      8          8           0       11.546732   16.939972    9.257567
      9          8           0        9.658750   15.743077    9.363357
     10          1           0        9.340432   16.508730    8.845709
     11          1           0       14.095076   17.969889   11.181834
     12          1           0       12.801778   16.337208   12.107302
     13          1           0       13.335470   13.875614   11.138514
     14          1           0       13.598694   14.746195    9.652277
     15          1           0       11.248349   13.850464    9.887583
     16          1           0       11.022009   14.749811   11.364699
     17          1           0       14.801971   16.929360   10.047142
     18          1           0       13.151777   17.320978    9.880314
     19          7           0       15.016198   15.817444   13.476795
     20          6           0       14.123890   16.543931   14.387702
     21          6           0       13.553950   17.810421   13.714487
     22          8           0       14.209901   18.447339   12.869390
     23          6           0       14.928747   16.930598   15.649116
     24          6           0       14.124039   17.590449   16.787326
     25          6           0       13.041011   16.663195   17.359694
     26          6           0       15.091775   18.032703   17.895445
     27          1           0       15.955227   15.633723   13.816198
     28          1           0       13.292685   15.889793   14.674259
     29          1           0       15.735117   17.603128   15.329030
     30          1           0       15.399809   16.016234   16.037717
     31          1           0       13.632447   18.490457   16.394984
     32          1           0       13.486023   15.736131   17.743343
     33          1           0       12.518165   17.154257   18.186167
     34          1           0       12.274675   16.389676   16.625225
     35          1           0       14.550502   18.538619   18.701583
     36          1           0       15.610132   17.169416   18.331625
     37          1           0       15.850750   18.724737   17.513313
     38          7           0       12.310849   18.126147   14.081305
     39          6           0       11.607569   19.345126   13.694116
     40          6           0       10.575395   19.620135   14.819786
     41          8           0        9.962509   20.725213   14.717141
     42          6           0       10.850131   19.154336   12.355600
     43          6           0        9.587175   18.266931   12.488327
     44          6           0        8.292380   19.081738   12.761749
     45          7           0        7.413467   18.452736   13.755737
     46          6           0        7.039724   18.946880   14.951509
     47          7           0        7.535924   20.063796   15.452969
     48          7           0        6.094536   18.238380   15.628508
     49          8           0       10.354016   18.687415   15.622625
     50          1           0       11.844046   17.683839   14.879203
     51          1           0       12.320996   20.166903   13.599794
     52          1           0       11.542132   18.717314   11.625534
     53          1           0       10.578165   20.143280   11.972153
     54          1           0        9.448591   17.672514   11.576546
     55          1           0        9.734665   17.557768   13.311147
     56          1           0        7.716249   19.201240   11.836953
     57          1           0        8.542594   20.077713   13.121078
     58          1           0        7.152910   17.490882   13.582910
     59          1           0        8.532604   20.405414   15.220552
     60          1           0        7.129821   20.415559   16.309637
     61          1           0        5.842692   18.516336   16.565716
     62          1           0        5.399714   17.708405   15.121916
 ---------------------------------------------------------------------

 SCF Done:  E(RB3LYP) =  -1447.49462887     A.U. after    1 cycles

 Alpha  occ. eigenvalues --  -19.33327 -19.28834 -19.23480 -19.23099 -19.17668
 Alpha  occ. eigenvalues --  -19.17639 -14.55437 -14.49041 -14.48855 -14.47882
 Alpha  occ. eigenvalues --  -14.46067 -14.45769 -10.46675 -10.44502 -10.41246
 Alpha  occ. eigenvalues --  -10.39962 -10.38331 -10.35479 -10.34892 -10.33905
 Alpha  occ. eigenvalues --  -10.33423 -10.33042 -10.31052 -10.29491 -10.28979
 Alpha  occ. eigenvalues --  -10.28938 -10.27702 -10.25457 -10.24809  -1.24802
 Alpha  occ. eigenvalues --   -1.16305  -1.15719  -1.14555  -1.12922  -1.11240
 Alpha  occ. eigenvalues --   -1.10544  -1.04192  -1.03481  -1.02716  -1.01736
 Alpha  occ. eigenvalues --   -1.00167  -0.94148  -0.90887  -0.89543  -0.87003
 Alpha  occ. eigenvalues --   -0.85400  -0.83192  -0.79794  -0.78092  -0.76229
 Alpha  occ. eigenvalues --   -0.74766  -0.73988  -0.72961  -0.72127  -0.71783
 Alpha  occ. eigenvalues --   -0.70164  -0.69253  -0.69132  -0.67142  -0.66769
 Alpha  occ. eigenvalues --   -0.65449  -0.63980  -0.63650  -0.63096  -0.62138
 Alpha  occ. eigenvalues --   -0.61393  -0.60822  -0.60478  -0.59893  -0.59683
 Alpha  occ. eigenvalues --   -0.58735  -0.58578  -0.56399  -0.55812  -0.54931
 Alpha  occ. eigenvalues --   -0.54567  -0.54099  -0.54003  -0.53552  -0.53216
 Alpha  occ. eigenvalues --   -0.52539  -0.51540  -0.51371  -0.50591  -0.50220
 Alpha  occ. eigenvalues --   -0.49958  -0.49363  -0.49277  -0.48533  -0.48000
 Alpha  occ. eigenvalues --   -0.47554  -0.46991  -0.46545  -0.46180  -0.46100
 Alpha  occ. eigenvalues --   -0.45628  -0.44817  -0.44475  -0.42998  -0.42321
 Alpha  occ. eigenvalues --   -0.41826  -0.41245  -0.41055  -0.39592  -0.37759
 Alpha  occ. eigenvalues --   -0.37576  -0.37098  -0.36914  -0.36318  -0.33188
 Alpha  occ. eigenvalues --   -0.32308  -0.32007
 Alpha virt. eigenvalues --   -0.13345  -0.10994  -0.09945  -0.08948  -0.06111
 Alpha virt. eigenvalues --   -0.05777  -0.04753  -0.03861  -0.03279  -0.01717
 Alpha virt. eigenvalues --   -0.01665  -0.00851  -0.00487  -0.00253   0.00090

 Mulliken charges:
               1
     1  N   -0.779745
     2  C   -0.108308
     3  C    0.617694
     4  O   -0.504255
     5  C   -0.289388
     6  C   -0.380069
     7  C    0.619148
     8  O   -0.498439
     9  O   -0.539589
    10  H    0.435454
    11  H    0.445760
    12  H    0.195851
    13  H    0.205327
    14  H    0.193678
    15  H    0.223008
    16  H    0.202543
    17  H    0.404813
    18  H    0.439576
    19  N   -0.610030
    20  C   -0.012075
    21  C    0.593493
    22  O   -0.591865
    23  C   -0.306564
    24  C   -0.096748
    25  C   -0.451223
    26  C   -0.447711
    27  H    0.359905
    28  H    0.165654
    29  H    0.172896
    30  H    0.157433
    31  H    0.150262
    32  H    0.147926
    33  H    0.172951
    34  H    0.135566
    35  H    0.162960
    36  H    0.149954
    37  H    0.154200
    38  N   -0.596143
    39  C   -0.059157
    40  C    0.609347
    41  O   -0.612377
    42  C   -0.264663
    43  C   -0.309495
    44  C   -0.161991
    45  N   -0.603057
    46  C    0.799223
    47  N   -0.765593
    48  N   -0.767452
    49  O   -0.582534
    50  H    0.382034
    51  H    0.188740
    52  H    0.115507
    53  H    0.179309
    54  H    0.126134
    55  H    0.165935
    56  H    0.168771
    57  H    0.227187
    58  H    0.343425
    59  H    0.444953
    60  H    0.350092
    61  H    0.368929
    62  H    0.362831
 Sum of Mulliken charges =   1.00000

 Dipole moment (field-independent basis, Debye):
    X=             47.3838    Y=             79.5378    Z=             60.5573  Tot=            110.6286
 Quadrupole moment (field-independent basis, Debye-Ang):
   XX=            365.0764   YY=           1146.0633   ZZ=            638.5801
   XY=            766.9404   XZ=            578.8545   YZ=           1008.7505

 Normal termination of Gaussian 16 at Tue May 24 03:31:27 2022.
