 Gaussian 16, Revision C.01,
 Gaussian 16:  ES64L-G16RevC.01  3-Jul-2019

 ----------------------------------------------------------------------
 # B3LYP/6-31G* empiricaldispersion=gd3 guess=read geom=check nosymm in
 tegral(ultrafinegrid)
 ----------------------------------------------------------------------

 ------------------------------------------------------
 Candidate Structure: Conf:780 Charge calc in gas phase
 ------------------------------------------------------
 Structure from the checkpoint file:  "conf-780.chk"
 Charge =  1 Multiplicity = 1

                          Input orientation:
 ---------------------------------------------------------------------
 Center     Atomic      Atomic             Coordinates (Angstroms)
 Number     Number       Type             X           Y           Z
 ---------------------------------------------------------------------
      1          7           0       33.862734  -32.613206   45.021801
      2          6           0       34.896471  -31.518236   45.116927
      3          6           0       35.668354  -31.622395   43.782769
      4          8           0       35.616765  -32.683387   43.165169
      5          6           0       34.188615  -30.174599   45.380571
      6          6           0       33.186936  -30.278312   46.509134
      7          6           0       31.828582  -30.512226   46.233620
      8          6           0       33.598815  -30.222040   47.846772
      9          6           0       30.908163  -30.682289   47.262021
     10          6           0       32.686126  -30.387153   48.885818
     11          6           0       31.332898  -30.618266   48.597241
     12          8           0       30.385806  -30.789121   49.551359
     13          1           0       34.327430  -33.440602   44.618840
     14          1           0       35.554937  -31.784117   45.950748
     15          1           0       34.961255  -29.432199   45.614411
     16          1           0       33.691481  -29.850615   44.460479
     17          1           0       31.485299  -30.546126   45.201581
     18          1           0       34.643943  -30.036090   48.086393
     19          1           0       29.856374  -30.851543   47.056541
     20          1           0       33.020319  -30.328550   49.919080
     21          1           0       30.773423  -30.697296   50.436635
     22          1           0       33.411856  -32.799404   45.920889
     23          1           0       33.145250  -32.335434   44.307834
     24          7           0       36.290634  -30.517509   43.311206
     25          6           0       36.802867  -30.517180   41.929886
     26          6           0       35.630799  -30.771481   40.947006
     27          8           0       35.753801  -31.499182   39.978685
     28          6           0       37.598392  -29.220508   41.636277
     29          6           0       36.766447  -27.932263   41.757321
     30          6           0       38.256825  -29.314824   40.250995
     31          1           0       36.354417  -29.676855   43.867326
     32          1           0       37.457136  -31.380768   41.791142
     33          1           0       38.397660  -29.188968   42.390663
     34          1           0       36.265444  -27.826261   42.730318
     35          1           0       37.414784  -27.058828   41.642249
     36          1           0       36.001095  -27.880227   40.974799
     37          1           0       37.506174  -29.372525   39.454998
     38          1           0       38.893870  -30.201406   40.169960
     39          1           0       38.876585  -28.431682   40.068580
     40          7           0       34.460652  -30.114543   41.255475
     41          6           0       33.130509  -30.549015   40.818425
     42          6           0       32.393917  -30.822157   42.132834
     43          8           0       32.541927  -31.864553   42.746046
     44          6           0       32.470781  -29.544542   39.861585
     45          6           0       33.200162  -29.443703   38.508510
     46          6           0       32.946104  -30.608818   37.543343
     47          7           0       33.454415  -31.875055   38.054784
     48          6           0       33.253617  -33.038965   37.288743
     49          7           0       32.507687  -33.196106   36.259950
     50          7           0       34.005927  -34.109419   37.772874
     51          8           0       31.683225  -29.825224   42.696863
     52          1           0       31.569562  -29.078579   42.080621
     53          1           0       34.498716  -29.467964   42.032200
     54          1           0       33.244070  -31.508967   40.311134
     55          1           0       32.470290  -28.542797   40.325130
     56          1           0       31.422685  -29.831347   39.700286
     57          1           0       34.277175  -29.332261   38.689113
     58          1           0       32.875709  -28.524795   38.007826
     59          1           0       33.383832  -30.352328   36.564394
     60          1           0       31.864791  -30.714971   37.386892
     61          1           0       34.398680  -31.813603   38.432598
     62          1           0       32.132701  -32.315925   35.908796
     63          1           0       33.752891  -34.974054   37.308130
     64          1           0       34.018246  -34.204135   38.782146
 ---------------------------------------------------------------------

 SCF Done:  E(RB3LYP) =  -1486.53231369     A.U. after    1 cycles

 Alpha  occ. eigenvalues --  -19.34620 -19.28810 -19.28279 -19.26854 -19.24240
 Alpha  occ. eigenvalues --  -14.58616 -14.51130 -14.49085 -14.40888 -14.39060
 Alpha  occ. eigenvalues --  -14.33788 -10.46893 -10.44195 -10.41319 -10.40910
 Alpha  occ. eigenvalues --  -10.36319 -10.36318 -10.35879 -10.34804 -10.33241
 Alpha  occ. eigenvalues --  -10.31879 -10.31662 -10.31401 -10.31236 -10.30869
 Alpha  occ. eigenvalues --  -10.30373 -10.30009 -10.29756 -10.29676 -10.29020
 Alpha  occ. eigenvalues --  -10.27522  -1.25088  -1.19506  -1.16685  -1.16591
 Alpha  occ. eigenvalues --   -1.16147  -1.13361  -1.07567  -1.05266  -1.03020
 Alpha  occ. eigenvalues --   -0.97700  -0.94959  -0.94015  -0.92116  -0.90805
 Alpha  occ. eigenvalues --   -0.89209  -0.86744  -0.86385  -0.85022  -0.82647
 Alpha  occ. eigenvalues --   -0.79974  -0.79283  -0.78107  -0.75803  -0.74532
 Alpha  occ. eigenvalues --   -0.74361  -0.73758  -0.71795  -0.71093  -0.70763
 Alpha  occ. eigenvalues --   -0.70298  -0.69373  -0.67961  -0.65742  -0.65651
 Alpha  occ. eigenvalues --   -0.64330  -0.63642  -0.61493  -0.61411  -0.60531
 Alpha  occ. eigenvalues --   -0.60225  -0.59744  -0.59478  -0.58669  -0.58279
 Alpha  occ. eigenvalues --   -0.57527  -0.57206  -0.56402  -0.55828  -0.55559
 Alpha  occ. eigenvalues --   -0.55065  -0.54664  -0.54073  -0.53682  -0.53406
 Alpha  occ. eigenvalues --   -0.52533  -0.51909  -0.51708  -0.51341  -0.50928
 Alpha  occ. eigenvalues --   -0.50656  -0.49990  -0.49566  -0.49257  -0.48799
 Alpha  occ. eigenvalues --   -0.48289  -0.47778  -0.47093  -0.46682  -0.45606
 Alpha  occ. eigenvalues --   -0.45457  -0.45252  -0.44949  -0.44789  -0.44607
 Alpha  occ. eigenvalues --   -0.43923  -0.42736  -0.41869  -0.41261  -0.40776
 Alpha  occ. eigenvalues --   -0.37964  -0.37056  -0.36927  -0.33280  -0.31688
 Alpha  occ. eigenvalues --   -0.30887  -0.28600
 Alpha virt. eigenvalues --   -0.15213  -0.13749  -0.12119  -0.11087  -0.09635
 Alpha virt. eigenvalues --   -0.08424  -0.07326  -0.06773  -0.03975  -0.02910
 Alpha virt. eigenvalues --   -0.02598  -0.02498  -0.01495  -0.01338  -0.00460

 Mulliken charges:
               1
     1  N   -0.755330
     2  C   -0.119740
     3  C    0.660304
     4  O   -0.505008
     5  C   -0.400738
     6  C    0.124677
     7  C   -0.232363
     8  C   -0.192234
     9  C   -0.156649
    10  C   -0.187356
    11  C    0.361548
    12  O   -0.618432
    13  H    0.422258
    14  H    0.225714
    15  H    0.178061
    16  H    0.174365
    17  H    0.166921
    18  H    0.142627
    19  H    0.173749
    20  H    0.153417
    21  H    0.423996
    22  H    0.412206
    23  H    0.453246
    24  N   -0.654027
    25  C   -0.028550
    26  C    0.625294
    27  O   -0.487626
    28  C   -0.124485
    29  C   -0.478464
    30  C   -0.455047
    31  H    0.350842
    32  H    0.217015
    33  H    0.160275
    34  H    0.117984
    35  H    0.190096
    36  H    0.165426
    37  H    0.169921
    38  H    0.173590
    39  H    0.170345
    40  N   -0.605800
    41  C   -0.051087
    42  C    0.609775
    43  O   -0.489820
    44  C   -0.297331
    45  C   -0.302673
    46  C   -0.129559
    47  N   -0.651500
    48  C    0.579250
    49  N   -0.638885
    50  N   -0.744733
    51  O   -0.560602
    52  H    0.443986
    53  H    0.327806
    54  H    0.244733
    55  H    0.125810
    56  H    0.173208
    57  H    0.160873
    58  H    0.166654
    59  H    0.159771
    60  H    0.157756
    61  H    0.368597
    62  H    0.280004
    63  H    0.340927
    64  H    0.315011
 Sum of Mulliken charges =   1.00000

 Dipole moment (field-independent basis, Debye):
    X=            164.7371    Y=           -143.1653    Z=            217.1728  Tot=            307.8939
 Quadrupole moment (field-independent basis, Debye-Ang):
   XX=           5487.2041   YY=           4094.9126   ZZ=           9656.9786
   XY=          -4908.4267   XZ=           7442.7633   YZ=          -6517.3292

 Normal termination of Gaussian 16 at Tue May 31 11:31:54 2022.
