 Gaussian 16, Revision C.01,
 Gaussian 16:  ES64L-G16RevC.01  3-Jul-2019

 ----------------------------------------------------------------------
 # B3LYP/6-31G* empiricaldispersion=gd3 guess=read geom=check nosymm in
 tegral(ultrafinegrid)
 ----------------------------------------------------------------------

 -----------------------------------------------------
 Candidate Structure: Conf:34 Charge calc in gas phase
 -----------------------------------------------------
 Structure from the checkpoint file:  "conf-34.chk"
 Charge =  1 Multiplicity = 1

                          Input orientation:
 ---------------------------------------------------------------------
 Center     Atomic      Atomic             Coordinates (Angstroms)
 Number     Number       Type             X           Y           Z
 ---------------------------------------------------------------------
      1          7           0       32.634625  -30.317361   42.716430
      2          6           0       32.260745  -31.738246   42.367008
      3          6           0       33.428555  -32.269067   41.520238
      4          8           0       33.483671  -31.955716   40.336693
      5          6           0       31.880973  -32.501134   43.648361
      6          6           0       30.745920  -31.825583   44.387926
      7          6           0       31.000281  -30.962889   45.462254
      8          6           0       29.415378  -32.002721   43.974893
      9          6           0       29.959980  -30.298532   46.113513
     10          6           0       28.370698  -31.348713   44.614342
     11          6           0       28.638534  -30.491912   45.692562
     12          8           0       27.572486  -29.886831   46.275475
     13          1           0       31.808962  -29.846757   43.102513
     14          1           0       31.403178  -31.672971   41.694348
     15          1           0       31.612864  -33.524808   43.362395
     16          1           0       32.754874  -32.565065   44.310563
     17          1           0       32.022391  -30.813741   45.806539
     18          1           0       29.192785  -32.673499   43.147895
     19          1           0       30.173221  -29.642809   46.954789
     20          1           0       27.340567  -31.492348   44.305986
     21          1           0       27.860817  -29.351353   47.031479
     22          1           0       33.338674  -30.325628   43.473066
     23          1           0       33.079683  -29.671730   41.899279
     24          7           0       34.421044  -32.951777   42.150004
     25          6           0       35.767923  -32.991694   41.560663
     26          6           0       36.379361  -31.566681   41.655495
     27          8           0       36.839722  -31.001884   40.672035
     28          6           0       36.635422  -34.129024   42.146785
     29          6           0       36.854444  -34.053993   43.666909
     30          6           0       37.981566  -34.184127   41.409015
     31          1           0       34.298965  -33.238203   43.111096
     32          1           0       35.645249  -33.162737   40.490221
     33          1           0       36.081837  -35.052475   41.929072
     34          1           0       37.466257  -33.187975   43.941331
     35          1           0       35.918236  -34.011502   44.241513
     36          1           0       37.382595  -34.949884   44.006997
     37          1           0       38.567304  -35.041893   41.753415
     38          1           0       38.571791  -33.278809   41.592343
     39          1           0       37.842637  -34.279190   40.327143
     40          7           0       36.310890  -31.000195   42.898862
     41          6           0       36.284742  -29.557296   43.162779
     42          6           0       35.569379  -29.398380   44.500752
     43          8           0       34.661510  -30.146198   44.856935
     44          6           0       37.613742  -28.793310   43.002569
     45          6           0       37.852101  -28.198903   41.598960
     46          6           0       36.708128  -27.289057   41.062755
     47          7           0       35.899566  -27.897956   40.001124
     48          6           0       34.801559  -28.695748   40.163725
     49          7           0       33.917152  -28.571789   41.136342
     50          7           0       34.631642  -29.644188   39.200964
     51          8           0       35.936111  -28.336316   45.210848
     52          1           0       35.376043  -28.297295   46.011283
     53          1           0       35.838515  -31.545661   43.606255
     54          1           0       35.546251  -29.119019   42.473313
     55          1           0       38.438265  -29.463020   43.268163
     56          1           0       37.626990  -27.973578   43.726338
     57          1           0       38.023420  -29.004661   40.882702
     58          1           0       38.774142  -27.609091   41.652958
     59          1           0       37.128863  -26.370763   40.643502
     60          1           0       36.043629  -26.964473   41.870718
     61          1           0       36.404562  -28.065516   39.139414
     62          1           0       33.994243  -27.667889   41.600591
     63          1           0       33.832008  -30.251311   39.343970
     64          1           0       35.465182  -30.172322   38.963692
 ---------------------------------------------------------------------

 SCF Done:  E(RB3LYP) =  -1486.56629585     A.U. after    1 cycles

 Alpha  occ. eigenvalues --  -19.34413 -19.29091 -19.27157 -19.24897 -19.23627
 Alpha  occ. eigenvalues --  -14.53815 -14.49342 -14.48005 -14.46103 -14.43819
 Alpha  occ. eigenvalues --  -14.41652 -10.47090 -10.42214 -10.40509 -10.40339
 Alpha  occ. eigenvalues --  -10.37847 -10.36291 -10.35023 -10.34650 -10.33065
 Alpha  occ. eigenvalues --  -10.32580 -10.30730 -10.30198 -10.29949 -10.29742
 Alpha  occ. eigenvalues --  -10.29495 -10.29186 -10.28568 -10.28428 -10.28350
 Alpha  occ. eigenvalues --  -10.26959  -1.25676  -1.17238  -1.16400  -1.15428
 Alpha  occ. eigenvalues --   -1.15230  -1.09428  -1.08922  -1.06054  -1.04219
 Alpha  occ. eigenvalues --   -0.99291  -0.96127  -0.95620  -0.92490  -0.90959
 Alpha  occ. eigenvalues --   -0.90231  -0.85881  -0.85149  -0.84762  -0.81760
 Alpha  occ. eigenvalues --   -0.79640  -0.78846  -0.77869  -0.75641  -0.72787
 Alpha  occ. eigenvalues --   -0.72393  -0.71678  -0.70339  -0.70054  -0.69284
 Alpha  occ. eigenvalues --   -0.68833  -0.68590  -0.66507  -0.65781  -0.65163
 Alpha  occ. eigenvalues --   -0.64518  -0.63610  -0.62792  -0.62162  -0.61477
 Alpha  occ. eigenvalues --   -0.60598  -0.59428  -0.58707  -0.58233  -0.57710
 Alpha  occ. eigenvalues --   -0.57377  -0.57177  -0.56568  -0.55866  -0.55053
 Alpha  occ. eigenvalues --   -0.54636  -0.54121  -0.53756  -0.53239  -0.52667
 Alpha  occ. eigenvalues --   -0.52443  -0.52168  -0.51448  -0.51110  -0.50917
 Alpha  occ. eigenvalues --   -0.50609  -0.50099  -0.49506  -0.49096  -0.48526
 Alpha  occ. eigenvalues --   -0.48027  -0.47646  -0.46823  -0.46466  -0.46065
 Alpha  occ. eigenvalues --   -0.45389  -0.44622  -0.44544  -0.44062  -0.43733
 Alpha  occ. eigenvalues --   -0.43643  -0.43176  -0.42118  -0.40811  -0.40341
 Alpha  occ. eigenvalues --   -0.38430  -0.37386  -0.35838  -0.35762  -0.35545
 Alpha  occ. eigenvalues --   -0.34371  -0.31975
 Alpha virt. eigenvalues --   -0.14176  -0.12776  -0.10740  -0.10182  -0.09578
 Alpha virt. eigenvalues --   -0.07176  -0.06855  -0.05415  -0.03804  -0.02107
 Alpha virt. eigenvalues --   -0.01785  -0.01007  -0.00806  -0.00323   0.00250

 Mulliken charges:
               1
     1  N   -0.828626
     2  C   -0.070144
     3  C    0.627182
     4  O   -0.510059
     5  C   -0.396514
     6  C    0.135532
     7  C   -0.224647
     8  C   -0.186330
     9  C   -0.189306
    10  C   -0.152737
    11  C    0.359992
    12  O   -0.621382
    13  H    0.389506
    14  H    0.216324
    15  H    0.195950
    16  H    0.158561
    17  H    0.145937
    18  H    0.147673
    19  H    0.140415
    20  H    0.171855
    21  H    0.419794
    22  H    0.412447
    23  H    0.448641
    24  N   -0.635201
    25  C   -0.053251
    26  C    0.610453
    27  O   -0.516711
    28  C   -0.104022
    29  C   -0.485350
    30  C   -0.455975
    31  H    0.349971
    32  H    0.209021
    33  H    0.164413
    34  H    0.165069
    35  H    0.128408
    36  H    0.186480
    37  H    0.170356
    38  H    0.163267
    39  H    0.167902
    40  N   -0.614930
    41  C   -0.028849
    42  C    0.575957
    43  O   -0.506360
    44  C   -0.293069
    45  C   -0.285480
    46  C   -0.170297
    47  N   -0.572145
    48  C    0.688884
    49  N   -0.783756
    50  N   -0.742997
    51  O   -0.529082
    52  H    0.437386
    53  H    0.337400
    54  H    0.200679
    55  H    0.174997
    56  H    0.183107
    57  H    0.193741
    58  H    0.161835
    59  H    0.186184
    60  H    0.148896
    61  H    0.344596
    62  H    0.303760
    63  H    0.376930
    64  H    0.357718
 Sum of Mulliken charges =   1.00000

 Dipole moment (field-independent basis, Debye):
    X=            164.7118    Y=           -145.6113    Z=            209.8825  Tot=            303.9462
 Quadrupole moment (field-independent basis, Debye-Ang):
   XX=           5503.9288   YY=           4267.8242   ZZ=           9010.1930
   XY=          -4991.6784   XZ=           7179.7381   YZ=          -6356.2794

 Normal termination of Gaussian 16 at Tue May 31 11:31:56 2022.
