 Gaussian 16, Revision C.01,
 Gaussian 16:  ES64L-G16RevC.01  3-Jul-2019

 ----------------------------------------------------------------------
 # B3LYP/6-31G* empiricaldispersion=gd3 guess=read geom=check nosymm in
 tegral(ultrafinegrid)
 ----------------------------------------------------------------------

 ------------------------------------------------------
 Candidate Structure: Conf:234 Charge calc in gas phase
 ------------------------------------------------------
 Structure from the checkpoint file:  "conf-234.chk"
 Charge =  1 Multiplicity = 1

                          Input orientation:
 ---------------------------------------------------------------------
 Center     Atomic      Atomic             Coordinates (Angstroms)
 Number     Number       Type             X           Y           Z
 ---------------------------------------------------------------------
      1          7           0       33.361795  -30.829129   41.161267
      2          6           0       32.738710  -29.522685   41.591291
      3          6           0       32.599789  -29.623224   43.119750
      4          8           0       31.687314  -30.297926   43.581586
      5          6           0       33.545402  -28.350496   41.004362
      6          6           0       33.640850  -28.433652   39.495548
      7          6           0       34.752755  -29.034142   38.880539
      8          6           0       32.598315  -27.971449   38.682851
      9          6           0       34.822709  -29.169093   37.497809
     10          6           0       32.657544  -28.097775   37.296928
     11          6           0       33.772826  -28.698974   36.697365
     12          8           0       33.901794  -28.857930   35.355252
     13          1           0       33.269384  -30.926445   40.144603
     14          1           0       31.721296  -29.520839   41.194646
     15          1           0       33.060537  -27.419527   41.320270
     16          1           0       34.558341  -28.354691   41.427988
     17          1           0       35.580617  -29.391271   39.490583
     18          1           0       31.730235  -27.495324   39.133626
     19          1           0       35.683859  -29.621547   37.017391
     20          1           0       31.843180  -27.723800   36.680616
     21          1           0       33.137397  -28.474075   34.897007
     22          1           0       34.380629  -30.807716   41.360000
     23          1           0       32.998489  -31.749187   41.655099
     24          7           0       33.567154  -29.061824   43.893555
     25          6           0       33.779852  -29.539128   45.267278
     26          6           0       34.407163  -30.959417   45.193384
     27          8           0       33.908410  -31.909993   45.777401
     28          6           0       34.543200  -28.515193   46.138896
     29          6           0       35.937353  -28.131757   45.615510
     30          6           0       34.631049  -29.029942   47.583408
     31          1           0       34.257060  -28.457729   43.469694
     32          1           0       32.794354  -29.703028   45.705635
     33          1           0       33.918176  -27.612048   46.129173
     34          1           0       35.928924  -27.759260   44.581374
     35          1           0       36.350500  -27.324766   46.228046
     36          1           0       36.633847  -28.975246   45.673250
     37          1           0       35.245477  -29.935770   47.645141
     38          1           0       33.641114  -29.268773   47.985644
     39          1           0       35.086216  -28.272243   48.228453
     40          7           0       35.520036  -31.048435   44.391485
     41          6           0       35.902266  -32.239650   43.608935
     42          6           0       36.689612  -31.661105   42.415647
     43          8           0       36.176001  -30.816857   41.693733
     44          6           0       36.591778  -33.378028   44.379010
     45          6           0       35.649807  -34.381466   45.075451
     46          6           0       34.663567  -35.118921   44.121739
     47          7           0       33.271235  -34.687005   44.222534
     48          6           0       32.686765  -33.649851   43.546227
     49          7           0       33.021040  -33.249010   42.337426
     50          7           0       31.653242  -33.051829   44.206708
     51          8           0       37.927947  -32.065784   42.160072
     52          1           0       38.252537  -32.679645   42.842113
     53          1           0       35.749964  -30.185645   43.918684
     54          1           0       34.990520  -32.635219   43.139207
     55          1           0       37.291779  -32.954775   45.109248
     56          1           0       37.178925  -33.969519   43.658837
     57          1           0       35.081523  -33.868792   45.853043
     58          1           0       36.285639  -35.125500   45.568193
     59          1           0       34.675406  -36.190244   44.341909
     60          1           0       34.983953  -35.032042   43.077759
     61          1           0       32.818305  -34.921075   45.097048
     62          1           0       33.589940  -33.943950   41.855364
     63          1           0       31.250323  -32.261238   43.716289
     64          1           0       31.835138  -32.832948   45.180671
 ---------------------------------------------------------------------

 SCF Done:  E(RB3LYP) =  -1486.55891222     A.U. after    1 cycles

 Alpha  occ. eigenvalues --  -19.34008 -19.28489 -19.26744 -19.24975 -19.24413
 Alpha  occ. eigenvalues --  -14.53635 -14.49542 -14.48679 -14.46114 -14.43643
 Alpha  occ. eigenvalues --  -14.41219 -10.46841 -10.42317 -10.41129 -10.40086
 Alpha  occ. eigenvalues --  -10.37782 -10.37047 -10.35033 -10.34591 -10.33563
 Alpha  occ. eigenvalues --  -10.32339 -10.32039 -10.31057 -10.29787 -10.29494
 Alpha  occ. eigenvalues --  -10.29338 -10.29175 -10.28869 -10.28633 -10.28098
 Alpha  occ. eigenvalues --  -10.27296  -1.25024  -1.17373  -1.16501  -1.15892
 Alpha  occ. eigenvalues --   -1.15004  -1.09324  -1.08811  -1.06394  -1.04621
 Alpha  occ. eigenvalues --   -0.99338  -0.95737  -0.95323  -0.92876  -0.91549
 Alpha  occ. eigenvalues --   -0.90222  -0.86017  -0.84675  -0.84595  -0.81918
 Alpha  occ. eigenvalues --   -0.80011  -0.79058  -0.77640  -0.76331  -0.73194
 Alpha  occ. eigenvalues --   -0.72211  -0.72193  -0.70232  -0.70046  -0.69616
 Alpha  occ. eigenvalues --   -0.69176  -0.68802  -0.67154  -0.66286  -0.65648
 Alpha  occ. eigenvalues --   -0.63993  -0.63679  -0.62761  -0.61941  -0.61670
 Alpha  occ. eigenvalues --   -0.59895  -0.59502  -0.58864  -0.58365  -0.57878
 Alpha  occ. eigenvalues --   -0.57466  -0.57064  -0.56509  -0.56181  -0.55247
 Alpha  occ. eigenvalues --   -0.54568  -0.54311  -0.53687  -0.53485  -0.52653
 Alpha  occ. eigenvalues --   -0.52402  -0.52209  -0.51891  -0.51383  -0.51288
 Alpha  occ. eigenvalues --   -0.50394  -0.49803  -0.49624  -0.49377  -0.48850
 Alpha  occ. eigenvalues --   -0.48371  -0.47570  -0.47013  -0.46416  -0.46212
 Alpha  occ. eigenvalues --   -0.45998  -0.45216  -0.44913  -0.44681  -0.44102
 Alpha  occ. eigenvalues --   -0.43298  -0.42784  -0.41852  -0.40729  -0.40352
 Alpha  occ. eigenvalues --   -0.38508  -0.38163  -0.36277  -0.35720  -0.35135
 Alpha  occ. eigenvalues --   -0.34224  -0.31555
 Alpha virt. eigenvalues --   -0.14461  -0.12761  -0.10866  -0.10316  -0.09237
 Alpha virt. eigenvalues --   -0.07089  -0.06843  -0.05619  -0.03618  -0.02432
 Alpha virt. eigenvalues --   -0.01268  -0.01171  -0.00706  -0.00477  -0.00147

 Mulliken charges:
               1
     1  N   -0.827962
     2  C   -0.067798
     3  C    0.624603
     4  O   -0.509532
     5  C   -0.399246
     6  C    0.132862
     7  C   -0.230517
     8  C   -0.186179
     9  C   -0.156446
    10  C   -0.188372
    11  C    0.360264
    12  O   -0.623781
    13  H    0.393174
    14  H    0.215158
    15  H    0.192056
    16  H    0.162158
    17  H    0.160693
    18  H    0.144663
    19  H    0.166131
    20  H    0.148131
    21  H    0.421104
    22  H    0.426041
    23  H    0.444147
    24  N   -0.636503
    25  C   -0.057057
    26  C    0.611275
    27  O   -0.508390
    28  C   -0.102771
    29  C   -0.487522
    30  C   -0.456334
    31  H    0.351513
    32  H    0.210036
    33  H    0.166081
    34  H    0.131505
    35  H    0.188348
    36  H    0.163338
    37  H    0.161510
    38  H    0.168365
    39  H    0.171910
    40  N   -0.611721
    41  C   -0.021621
    42  C    0.562942
    43  O   -0.479685
    44  C   -0.330807
    45  C   -0.280846
    46  C   -0.166618
    47  N   -0.574096
    48  C    0.685551
    49  N   -0.774718
    50  N   -0.744164
    51  O   -0.518330
    52  H    0.446281
    53  H    0.338223
    54  H    0.198277
    55  H    0.179897
    56  H    0.138057
    57  H    0.203548
    58  H    0.164062
    59  H    0.187465
    60  H    0.147241
    61  H    0.343993
    62  H    0.300455
    63  H    0.375713
    64  H    0.354246
 Sum of Mulliken charges =   1.00000

 Dipole moment (field-independent basis, Debye):
    X=            166.2356    Y=           -148.3091    Z=            204.7034  Tot=            302.5448
 Quadrupole moment (field-independent basis, Debye-Ang):
   XX=           5587.6409   YY=           4440.4645   ZZ=           8592.0965
   XY=          -5152.7108   XZ=           7109.7190   YZ=          -6336.8456

 Normal termination of Gaussian 16 at Tue May 31 11:31:55 2022.
