 Gaussian 16, Revision C.01,
 Gaussian 16:  ES64L-G16RevC.01  3-Jul-2019

 ----------------------------------------------------------------------
 # B3LYP/6-31G* empiricaldispersion=gd3 guess=read geom=check nosymm in
 tegral(ultrafinegrid)
 ----------------------------------------------------------------------

 ------------------------------------------------------
 Candidate Structure: Conf:876 Charge calc in gas phase
 ------------------------------------------------------
 Structure from the checkpoint file:  "conf-876.chk"
 Charge =  1 Multiplicity = 1

                          Input orientation:
 ---------------------------------------------------------------------
 Center     Atomic      Atomic             Coordinates (Angstroms)
 Number     Number       Type             X           Y           Z
 ---------------------------------------------------------------------
      1          7           0       33.405390  -29.269333   40.149685
      2          6           0       32.099097  -29.929782   40.541537
      3          6           0       32.550121  -31.381202   40.815191
      4          8           0       33.488768  -31.815832   40.149983
      5          6           0       31.437520  -29.146710   41.687922
      6          6           0       31.436218  -27.653709   41.430166
      7          6           0       32.232752  -26.795894   42.205875
      8          6           0       30.691850  -27.098489   40.379423
      9          6           0       32.287334  -25.430571   41.949172
     10          6           0       30.739401  -25.732715   40.107347
     11          6           0       31.539452  -24.889537   40.893169
     12          8           0       31.639304  -23.555019   40.692613
     13          1           0       33.251234  -28.326732   39.777029
     14          1           0       31.472855  -29.905482   39.644289
     15          1           0       30.414645  -29.528575   41.799113
     16          1           0       31.971494  -29.358693   42.620038
     17          1           0       32.793217  -27.200223   43.046193
     18          1           0       30.048615  -27.732310   39.771959
     19          1           0       32.888347  -24.763290   42.557883
     20          1           0       30.146275  -25.319205   39.295251
     21          1           0       31.056431  -23.271345   39.970047
     22          1           0       34.019921  -29.216427   40.986679
     23          1           0       33.874280  -29.894360   39.475305
     24          7           0       31.982460  -32.058965   41.830371
     25          6           0       32.636281  -33.282799   42.318504
     26          6           0       34.090530  -32.974020   42.748152
     27          8           0       34.964472  -33.812982   42.579930
     28          6           0       31.796600  -33.954304   43.433174
     29          6           0       31.663949  -33.094897   44.701706
     30          6           0       32.364953  -35.340521   43.769932
     31          1           0       31.185862  -31.683750   42.326920
     32          1           0       32.739729  -33.974930   41.479527
     33          1           0       30.794586  -34.093803   43.002083
     34          1           0       30.977608  -33.573303   45.406461
     35          1           0       32.630044  -32.981235   45.205523
     36          1           0       31.265225  -32.089225   44.506252
     37          1           0       32.418924  -35.976872   42.880969
     38          1           0       31.726675  -35.837093   44.507129
     39          1           0       33.374595  -35.266090   44.186053
     40          7           0       34.291609  -31.747918   43.315327
     41          6           0       35.579576  -31.244558   43.768400
     42          6           0       35.744142  -29.758259   43.492662
     43          8           0       36.649494  -29.080546   43.892512
     44          6           0       35.848977  -31.505299   45.275459
     45          6           0       36.092051  -32.979151   45.640633
     46          6           0       37.475993  -33.508667   45.234811
     47          7           0       37.636543  -33.492885   43.791709
     48          6           0       38.879303  -33.594719   43.166513
     49          7           0       40.046848  -33.452385   43.676311
     50          7           0       38.755039  -33.767077   41.779372
     51          8           0       34.718803  -29.160155   42.741767
     52          1           0       34.950439  -28.209321   42.772500
     53          1           0       33.474776  -31.203412   43.552130
     54          1           0       36.365081  -31.756708   43.198194
     55          1           0       34.992081  -31.116880   45.842795
     56          1           0       36.720214  -30.909372   45.565228
     57          1           0       35.307956  -33.615728   45.211700
     58          1           0       36.003384  -33.075876   46.729114
     59          1           0       37.625671  -34.513649   45.661237
     60          1           0       38.240609  -32.859471   45.677819
     61          1           0       36.845003  -33.869884   43.279544
     62          1           0       40.014606  -33.243560   44.673240
     63          1           0       39.663879  -33.961515   41.373157
     64          1           0       38.070637  -34.461233   41.495359
 ---------------------------------------------------------------------

 SCF Done:  E(RB3LYP) =  -1486.52770527     A.U. after    1 cycles

 Alpha  occ. eigenvalues --  -19.34486 -19.29293 -19.27306 -19.27306 -19.23690
 Alpha  occ. eigenvalues --  -14.60469 -14.51523 -14.48580 -14.40428 -14.38846
 Alpha  occ. eigenvalues --  -14.33115 -10.45268 -10.44693 -10.41892 -10.41043
 Alpha  occ. eigenvalues --  -10.37488 -10.35776 -10.35644 -10.35448 -10.32985
 Alpha  occ. eigenvalues --  -10.32977 -10.32486 -10.32393 -10.31778 -10.31601
 Alpha  occ. eigenvalues --  -10.31002 -10.29448 -10.29352 -10.29260 -10.27759
 Alpha  occ. eigenvalues --  -10.27402  -1.23939  -1.20198  -1.17668  -1.15713
 Alpha  occ. eigenvalues --   -1.15294  -1.14640  -1.07939  -1.04878  -1.02637
 Alpha  occ. eigenvalues --   -0.98909  -0.94780  -0.94440  -0.92365  -0.89881
 Alpha  occ. eigenvalues --   -0.88719  -0.87726  -0.87607  -0.84666  -0.82790
 Alpha  occ. eigenvalues --   -0.80858  -0.79392  -0.77346  -0.75782  -0.75170
 Alpha  occ. eigenvalues --   -0.74702  -0.73546  -0.72405  -0.71896  -0.71097
 Alpha  occ. eigenvalues --   -0.69716  -0.69002  -0.66998  -0.66647  -0.64886
 Alpha  occ. eigenvalues --   -0.64361  -0.64090  -0.62091  -0.61828  -0.61272
 Alpha  occ. eigenvalues --   -0.59897  -0.59606  -0.59096  -0.58929  -0.58031
 Alpha  occ. eigenvalues --   -0.57515  -0.56892  -0.56633  -0.56049  -0.55385
 Alpha  occ. eigenvalues --   -0.55219  -0.54991  -0.54719  -0.54235  -0.53674
 Alpha  occ. eigenvalues --   -0.53025  -0.52550  -0.52014  -0.51333  -0.50937
 Alpha  occ. eigenvalues --   -0.50415  -0.49990  -0.49545  -0.49084  -0.48849
 Alpha  occ. eigenvalues --   -0.48446  -0.47419  -0.46255  -0.46095  -0.45774
 Alpha  occ. eigenvalues --   -0.45489  -0.45292  -0.45281  -0.44705  -0.44353
 Alpha  occ. eigenvalues --   -0.42830  -0.41856  -0.41644  -0.41196  -0.40931
 Alpha  occ. eigenvalues --   -0.38229  -0.37471  -0.36526  -0.34421  -0.31841
 Alpha  occ. eigenvalues --   -0.29940  -0.27663
 Alpha virt. eigenvalues --   -0.14849  -0.13473  -0.12557  -0.12170  -0.09841
 Alpha virt. eigenvalues --   -0.09421  -0.07717  -0.06783  -0.04478  -0.04044
 Alpha virt. eigenvalues --   -0.03627  -0.03313  -0.02072  -0.01716  -0.00354

 Mulliken charges:
               1
     1  N   -0.757832
     2  C   -0.119300
     3  C    0.660022
     4  O   -0.508958
     5  C   -0.393681
     6  C    0.118263
     7  C   -0.220797
     8  C   -0.203491
     9  C   -0.150268
    10  C   -0.185336
    11  C    0.362575
    12  O   -0.614904
    13  H    0.411466
    14  H    0.231147
    15  H    0.194027
    16  H    0.177050
    17  H    0.138885
    18  H    0.148735
    19  H    0.177745
    20  H    0.159089
    21  H    0.426580
    22  H    0.436172
    23  H    0.427719
    24  N   -0.651260
    25  C   -0.023648
    26  C    0.632889
    27  O   -0.511636
    28  C   -0.126169
    29  C   -0.477912
    30  C   -0.455588
    31  H    0.354606
    32  H    0.214275
    33  H    0.157575
    34  H    0.188479
    35  H    0.169639
    36  H    0.116664
    37  H    0.169833
    38  H    0.168934
    39  H    0.174941
    40  N   -0.611221
    41  C   -0.074477
    42  C    0.603391
    43  O   -0.403374
    44  C   -0.267561
    45  C   -0.307600
    46  C   -0.116780
    47  N   -0.649757
    48  C    0.577895
    49  N   -0.641185
    50  N   -0.751501
    51  O   -0.642498
    52  H    0.424935
    53  H    0.334209
    54  H    0.260299
    55  H    0.137546
    56  H    0.193470
    57  H    0.152784
    58  H    0.162026
    59  H    0.155540
    60  H    0.154949
    61  H    0.362241
    62  H    0.275696
    63  H    0.339402
    64  H    0.315043
 Sum of Mulliken charges =   1.00000

 Dipole moment (field-independent basis, Debye):
    X=            150.4780    Y=           -140.9412    Z=            199.2306  Tot=            286.7070
 Quadrupole moment (field-independent basis, Debye-Ang):
   XX=           4497.3177   YY=           3997.7820   ZZ=           8114.8549
   XY=          -4409.1576   XZ=           6244.1426   YZ=          -5875.5533

 Normal termination of Gaussian 16 at Tue May 31 11:31:54 2022.
