 Gaussian 16, Revision C.01,
 Gaussian 16:  ES64L-G16RevC.01  3-Jul-2019

 ----------------------------------------------------------------------
 # B3LYP/6-31G* empiricaldispersion=gd3 guess=read geom=check nosymm in
 tegral(ultrafinegrid)
 ----------------------------------------------------------------------

 ------------------------------------------------------
 Candidate Structure: Conf:472 Charge calc in gas phase
 ------------------------------------------------------
 Structure from the checkpoint file:  "conf-472.chk"
 Charge =  1 Multiplicity = 1

                          Input orientation:
 ---------------------------------------------------------------------
 Center     Atomic      Atomic             Coordinates (Angstroms)
 Number     Number       Type             X           Y           Z
 ---------------------------------------------------------------------
      1          7           0       35.907314  -29.915621   43.784199
      2          6           0       35.276353  -31.020795   44.579669
      3          6           0       33.776845  -30.954855   44.217122
      4          8           0       33.258069  -29.856999   44.004058
      5          6           0       36.003610  -32.346667   44.274131
      6          6           0       37.505943  -32.216736   44.402036
      7          6           0       38.295681  -31.985651   43.267517
      8          6           0       38.134721  -32.263907   45.656420
      9          6           0       39.675150  -31.810924   43.377030
     10          6           0       39.508027  -32.093214   45.779324
     11          6           0       40.287594  -31.866745   44.635358
     12          8           0       41.623271  -31.709275   44.822742
     13          1           0       35.352325  -29.058082   43.872418
     14          1           0       35.382700  -30.766815   45.640358
     15          1           0       35.631208  -33.104340   44.974999
     16          1           0       35.738567  -32.657445   43.258636
     17          1           0       37.827900  -31.943886   42.286014
     18          1           0       37.543202  -32.451309   46.550403
     19          1           0       40.274546  -31.641074   42.485449
     20          1           0       40.000178  -32.140786   46.744995
     21          1           0       42.069490  -31.592258   43.969077
     22          1           0       36.879516  -29.762733   44.060734
     23          1           0       35.834349  -30.215751   42.723328
     24          7           0       33.100243  -32.120754   44.119285
     25          6           0       31.708217  -32.155234   43.650477
     26          6           0       31.580355  -31.363187   42.332898
     27          8           0       30.625190  -30.596371   42.164637
     28          6           0       31.188471  -33.611455   43.567443
     29          6           0       31.964423  -34.484421   42.567700
     30          6           0       29.686727  -33.615489   43.247699
     31          1           0       33.575375  -32.995613   44.289861
     32          1           0       31.087999  -31.598137   44.358682
     33          1           0       31.323321  -34.032354   44.574646
     34          1           0       33.043677  -34.514076   42.766807
     35          1           0       31.602819  -35.515918   42.616466
     36          1           0       31.823966  -34.127942   41.541788
     37          1           0       29.492483  -33.193617   42.255603
     38          1           0       29.118812  -33.028617   43.977046
     39          1           0       29.302287  -34.639895   43.260929
     40          7           0       32.570304  -31.529951   41.414250
     41          6           0       32.994874  -30.363980   40.632805
     42          6           0       34.405013  -29.929726   41.088620
     43          8           0       35.171819  -30.852891   41.530997
     44          6           0       32.794388  -30.497080   39.117542
     45          6           0       31.313729  -30.386919   38.701432
     46          6           0       30.717380  -28.963024   38.682905
     47          7           0       30.486474  -28.358588   40.012453
     48          6           0       31.425244  -27.754483   40.755287
     49          7           0       32.484400  -27.113760   40.218666
     50          7           0       31.312833  -27.787603   42.093886
     51          8           0       34.663906  -28.707055   41.090592
     52          1           0       33.399527  -27.426479   40.595481
     53          1           0       33.359061  -32.105891   41.691385
     54          1           0       32.359808  -29.575321   40.989004
     55          1           0       33.200594  -31.458964   38.785848
     56          1           0       33.383740  -29.717959   38.616724
     57          1           0       30.700951  -31.024163   39.351009
     58          1           0       31.199495  -30.774457   37.681663
     59          1           0       29.742288  -28.978802   38.188824
     60          1           0       31.346132  -28.291166   38.091930
     61          1           0       29.756470  -28.809500   40.554820
     62          1           0       32.481570  -26.977540   39.216698
     63          1           0       32.019868  -27.306792   42.634451
     64          1           0       30.913589  -28.626212   42.516990
 ---------------------------------------------------------------------

 SCF Done:  E(RB3LYP) =  -1486.59597565     A.U. after    1 cycles

 Alpha  occ. eigenvalues --  -19.26456 -19.24936 -19.23306 -19.21492 -19.20733
 Alpha  occ. eigenvalues --  -14.53474 -14.49881 -14.49291 -14.48621 -14.47619
 Alpha  occ. eigenvalues --  -14.46076 -10.45215 -10.42266 -10.40126 -10.38657
 Alpha  occ. eigenvalues --  -10.37743 -10.34771 -10.34600 -10.34280 -10.32193
 Alpha  occ. eigenvalues --  -10.31713 -10.30725 -10.29551 -10.29374 -10.29172
 Alpha  occ. eigenvalues --  -10.28902 -10.28885 -10.28299 -10.27915 -10.27771
 Alpha  occ. eigenvalues --  -10.26855  -1.17235  -1.14902  -1.14710  -1.14250
 Alpha  occ. eigenvalues --   -1.13895  -1.09015  -1.05788  -1.05295  -1.03510
 Alpha  occ. eigenvalues --   -1.02599  -1.01443  -0.95321  -0.92131  -0.90265
 Alpha  occ. eigenvalues --   -0.89742  -0.85395  -0.84395  -0.84136  -0.81366
 Alpha  occ. eigenvalues --   -0.78722  -0.78338  -0.76970  -0.74842  -0.72730
 Alpha  occ. eigenvalues --   -0.71657  -0.70929  -0.70269  -0.69928  -0.69072
 Alpha  occ. eigenvalues --   -0.68823  -0.67942  -0.67405  -0.66902  -0.64995
 Alpha  occ. eigenvalues --   -0.63740  -0.63618  -0.63063  -0.61566  -0.59898
 Alpha  occ. eigenvalues --   -0.59309  -0.59128  -0.58148  -0.57850  -0.57545
 Alpha  occ. eigenvalues --   -0.56807  -0.56338  -0.55805  -0.54782  -0.54504
 Alpha  occ. eigenvalues --   -0.53743  -0.53432  -0.52777  -0.52692  -0.52144
 Alpha  occ. eigenvalues --   -0.51871  -0.51533  -0.51262  -0.50714  -0.50511
 Alpha  occ. eigenvalues --   -0.49828  -0.49403  -0.49165  -0.48763  -0.47939
 Alpha  occ. eigenvalues --   -0.47518  -0.46949  -0.45687  -0.45618  -0.45112
 Alpha  occ. eigenvalues --   -0.44505  -0.44385  -0.43765  -0.43550  -0.42953
 Alpha  occ. eigenvalues --   -0.42444  -0.40765  -0.39613  -0.38918  -0.38759
 Alpha  occ. eigenvalues --   -0.38236  -0.36794  -0.36382  -0.35878  -0.34796
 Alpha  occ. eigenvalues --   -0.33831  -0.31247
 Alpha virt. eigenvalues --   -0.12067  -0.11757  -0.10068  -0.09953  -0.08862
 Alpha virt. eigenvalues --   -0.06241  -0.04681  -0.04179  -0.03541  -0.02187
 Alpha virt. eigenvalues --   -0.01350  -0.01142  -0.00474  -0.00395   0.00705

 Mulliken charges:
               1
     1  N   -0.763255
     2  C   -0.096664
     3  C    0.664470
     4  O   -0.551934
     5  C   -0.400794
     6  C    0.119063
     7  C   -0.216607
     8  C   -0.190409
     9  C   -0.190274
    10  C   -0.154350
    11  C    0.359036
    12  O   -0.623455
    13  H    0.402046
    14  H    0.211625
    15  H    0.170287
    16  H    0.198499
    17  H    0.166833
    18  H    0.138314
    19  H    0.146269
    20  H    0.167580
    21  H    0.420120
    22  H    0.395375
    23  H    0.452453
    24  N   -0.649801
    25  C   -0.003256
    26  C    0.622594
    27  O   -0.577002
    28  C   -0.131004
    29  C   -0.472828
    30  C   -0.451723
    31  H    0.356903
    32  H    0.193786
    33  H    0.154146
    34  H    0.131666
    35  H    0.180520
    36  H    0.170091
    37  H    0.164170
    38  H    0.163690
    39  H    0.168931
    40  N   -0.580162
    41  C   -0.059561
    42  C    0.629303
    43  O   -0.641060
    44  C   -0.269931
    45  C   -0.275663
    46  C   -0.177355
    47  N   -0.532757
    48  C    0.637578
    49  N   -0.736328
    50  N   -0.705456
    51  O   -0.577361
    52  H    0.406468
    53  H    0.347135
    54  H    0.157238
    55  H    0.170064
    56  H    0.151152
    57  H    0.172674
    58  H    0.170037
    59  H    0.195142
    60  H    0.166861
    61  H    0.371423
    62  H    0.356171
    63  H    0.374397
    64  H    0.404881
 Sum of Mulliken charges =   1.00000

 Dipole moment (field-independent basis, Debye):
    X=            161.9688    Y=           -146.7758    Z=            203.5166  Tot=            298.6571
 Quadrupole moment (field-independent basis, Debye-Ang):
   XX=           5338.8306   YY=           4330.1798   ZZ=           8481.8280
   XY=          -4953.8846   XZ=           6885.2616   YZ=          -6235.7822

 Normal termination of Gaussian 16 at Tue May 31 11:31:55 2022.
