 Gaussian 16, Revision C.01,
 Gaussian 16:  ES64L-G16RevC.01  3-Jul-2019

 ----------------------------------------------------------------------
 # B3LYP/6-31G* empiricaldispersion=gd3 guess=read geom=check nosymm in
 tegral(ultrafinegrid)
 ----------------------------------------------------------------------

 ------------------------------------------------------
 Candidate Structure: Conf:948 Charge calc in gas phase
 ------------------------------------------------------
 Structure from the checkpoint file:  "conf-948.chk"
 Charge =  1 Multiplicity = 1

                          Input orientation:
 ---------------------------------------------------------------------
 Center     Atomic      Atomic             Coordinates (Angstroms)
 Number     Number       Type             X           Y           Z
 ---------------------------------------------------------------------
      1          7           0       33.407636  -31.045547   40.390076
      2          6           0       31.967612  -30.588162   40.598631
      3          6           0       31.515073  -31.422507   41.814864
      4          8           0       31.184154  -32.578519   41.622758
      5          6           0       31.937464  -29.054011   40.641717
      6          6           0       32.442202  -28.462715   39.340526
      7          6           0       33.775851  -28.052851   39.204064
      8          6           0       31.597598  -28.372245   38.221541
      9          6           0       34.256192  -27.562546   37.988032
     10          6           0       32.062112  -27.883758   37.008281
     11          6           0       33.398832  -27.473686   36.884502
     12          8           0       33.785681  -27.005862   35.672026
     13          1           0       34.019336  -30.705288   41.160505
     14          1           0       31.410153  -30.958368   39.736046
     15          1           0       30.901640  -28.754415   40.836832
     16          1           0       32.550259  -28.689793   41.474949
     17          1           0       34.443698  -28.103263   40.061652
     18          1           0       30.556618  -28.676670   38.305824
     19          1           0       35.290294  -27.236661   37.900778
     20          1           0       31.409905  -27.800811   36.145371
     21          1           0       34.711851  -26.717619   35.698896
     22          1           0       33.461096  -32.071167   40.389314
     23          1           0       33.768825  -30.658789   39.508430
     24          7           0       31.673112  -30.850552   43.051322
     25          6           0       32.201825  -31.701293   44.139066
     26          6           0       33.720400  -31.679577   43.850237
     27          8           0       34.160294  -32.331990   42.894904
     28          6           0       31.641966  -31.341063   45.530466
     29          6           0       31.672273  -29.851819   45.916629
     30          6           0       32.283230  -32.229286   46.608817
     31          1           0       32.025370  -29.900566   43.059833
     32          1           0       31.884828  -32.718107   43.901393
     33          1           0       30.580980  -31.613153   45.461385
     34          1           0       31.072761  -29.700192   46.819483
     35          1           0       32.674699  -29.472155   46.156641
     36          1           0       31.244112  -29.214084   45.135760
     37          1           0       33.342281  -31.985394   46.759070
     38          1           0       32.218430  -33.290701   46.343779
     39          1           0       31.776412  -32.092836   47.568807
     40          7           0       34.496952  -30.810759   44.532845
     41          6           0       35.881591  -30.574857   44.164402
     42          6           0       35.937201  -29.644465   42.953146
     43          8           0       35.019787  -29.472656   42.156869
     44          6           0       36.717022  -30.106765   45.369808
     45          6           0       36.741827  -31.098702   46.547563
     46          6           0       37.274455  -32.497487   46.205188
     47          7           0       36.307262  -33.241458   45.409426
     48          6           0       36.683174  -34.382063   44.673718
     49          7           0       37.849350  -34.892067   44.535404
     50          7           0       35.573359  -34.947761   44.045332
     51          8           0       37.127233  -29.064647   42.805928
     52          1           0       37.117103  -28.531677   41.987173
     53          1           0       34.103125  -30.272262   45.290128
     54          1           0       36.276226  -31.536288   43.814339
     55          1           0       36.342858  -29.133501   45.716454
     56          1           0       37.738993  -29.934889   45.019965
     57          1           0       35.741735  -31.191034   46.994103
     58          1           0       37.377203  -30.665359   47.328334
     59          1           0       37.548164  -33.026491   47.131190
     60          1           0       38.191997  -32.401256   45.612167
     61          1           0       35.406944  -33.361242   45.861956
     62          1           0       38.529014  -34.489646   45.180729
     63          1           0       35.846323  -35.739640   43.474095
     64          1           0       34.997571  -34.281504   43.537629
 ---------------------------------------------------------------------

 SCF Done:  E(RB3LYP) =  -1486.53790065     A.U. after    2 cycles

 Alpha  occ. eigenvalues --  -19.34214 -19.29244 -19.27880 -19.25422 -19.24838
 Alpha  occ. eigenvalues --  -14.58796 -14.49824 -14.49466 -14.43027 -14.40122
 Alpha  occ. eigenvalues --  -14.35486 -10.46975 -10.42704 -10.42156 -10.39546
 Alpha  occ. eigenvalues --  -10.36579 -10.35843 -10.35648 -10.34852 -10.33562
 Alpha  occ. eigenvalues --  -10.31505 -10.31351 -10.31145 -10.31126 -10.30785
 Alpha  occ. eigenvalues --  -10.30313 -10.30038 -10.29717 -10.29695 -10.29233
 Alpha  occ. eigenvalues --  -10.28695  -1.25474  -1.18146  -1.16829  -1.16185
 Alpha  occ. eigenvalues --   -1.15995  -1.13266  -1.06394  -1.05941  -1.04627
 Alpha  occ. eigenvalues --   -0.97095  -0.96259  -0.93475  -0.91998  -0.91138
 Alpha  occ. eigenvalues --   -0.90691  -0.86233  -0.85910  -0.85657  -0.82840
 Alpha  occ. eigenvalues --   -0.80198  -0.79125  -0.78614  -0.75880  -0.73411
 Alpha  occ. eigenvalues --   -0.73291  -0.72806  -0.71937  -0.71405  -0.70903
 Alpha  occ. eigenvalues --   -0.69844  -0.69698  -0.65974  -0.65902  -0.65385
 Alpha  occ. eigenvalues --   -0.64449  -0.63622  -0.62980  -0.62234  -0.61324
 Alpha  occ. eigenvalues --   -0.60081  -0.59616  -0.59101  -0.58395  -0.58203
 Alpha  occ. eigenvalues --   -0.57692  -0.57049  -0.55973  -0.55640  -0.55316
 Alpha  occ. eigenvalues --   -0.54840  -0.54231  -0.53841  -0.53772  -0.53317
 Alpha  occ. eigenvalues --   -0.52832  -0.52628  -0.52147  -0.51543  -0.51119
 Alpha  occ. eigenvalues --   -0.50839  -0.50321  -0.49949  -0.49459  -0.48783
 Alpha  occ. eigenvalues --   -0.48403  -0.47719  -0.47338  -0.46753  -0.45904
 Alpha  occ. eigenvalues --   -0.45584  -0.45432  -0.44976  -0.44664  -0.44522
 Alpha  occ. eigenvalues --   -0.44056  -0.43625  -0.42541  -0.41104  -0.39366
 Alpha  occ. eigenvalues --   -0.38979  -0.36954  -0.36409  -0.33347  -0.32806
 Alpha  occ. eigenvalues --   -0.32419  -0.30251
 Alpha virt. eigenvalues --   -0.15102  -0.13888  -0.11725  -0.10519  -0.10082
 Alpha virt. eigenvalues --   -0.07031  -0.06155  -0.05913  -0.04495  -0.02804
 Alpha virt. eigenvalues --   -0.02467  -0.02437  -0.01438  -0.01320  -0.00962

 Mulliken charges:
               1
     1  N   -0.768896
     2  C   -0.107244
     3  C    0.605649
     4  O   -0.461020
     5  C   -0.393624
     6  C    0.121516
     7  C   -0.230549
     8  C   -0.185242
     9  C   -0.187133
    10  C   -0.151175
    11  C    0.361323
    12  O   -0.618670
    13  H    0.458965
    14  H    0.226237
    15  H    0.203402
    16  H    0.177840
    17  H    0.143967
    18  H    0.151002
    19  H    0.140810
    20  H    0.175653
    21  H    0.421298
    22  H    0.426916
    23  H    0.405769
    24  N   -0.599853
    25  C   -0.062767
    26  C    0.606706
    27  O   -0.570768
    28  C   -0.102133
    29  C   -0.486689
    30  C   -0.473970
    31  H    0.341869
    32  H    0.223333
    33  H    0.178604
    34  H    0.190752
    35  H    0.138542
    36  H    0.160192
    37  H    0.138077
    38  H    0.176433
    39  H    0.181305
    40  N   -0.599895
    41  C   -0.055935
    42  C    0.626122
    43  O   -0.519241
    44  C   -0.308555
    45  C   -0.288983
    46  C   -0.137494
    47  N   -0.624438
    48  C    0.564866
    49  N   -0.629147
    50  N   -0.774587
    51  O   -0.523942
    52  H    0.432009
    53  H    0.352719
    54  H    0.253647
    55  H    0.153430
    56  H    0.191635
    57  H    0.140986
    58  H    0.173898
    59  H    0.166206
    60  H    0.161893
    61  H    0.325186
    62  H    0.281592
    63  H    0.339178
    64  H    0.342422
 Sum of Mulliken charges =   1.00000

 Dipole moment (field-independent basis, Debye):
    X=            163.3910    Y=           -139.9839    Z=            202.8722  Tot=            295.7182
 Quadrupole moment (field-independent basis, Debye-Ang):
   XX=           5395.6799   YY=           3882.5312   ZZ=           8452.6706
   XY=          -4746.9752   XZ=           6899.1185   YZ=          -5922.9162

 Normal termination of Gaussian 16 at Tue May 31 11:50:50 2022.
