 Gaussian 16, Revision C.01,
 Gaussian 16:  ES64L-G16RevC.01  3-Jul-2019

 ----------------------------------------------------------------------
 # B3LYP/6-31G* empiricaldispersion=gd3 guess=read geom=check nosymm in
 tegral(ultrafinegrid)
 ----------------------------------------------------------------------

 ------------------------------------------------------
 Candidate Structure: Conf:961 Charge calc in gas phase
 ------------------------------------------------------
 Structure from the checkpoint file:  "conf-961.chk"
 Charge =  1 Multiplicity = 1

                          Input orientation:
 ---------------------------------------------------------------------
 Center     Atomic      Atomic             Coordinates (Angstroms)
 Number     Number       Type             X           Y           Z
 ---------------------------------------------------------------------
      1          7           0       33.975251  -29.569035   41.664470
      2          6           0       32.633248  -30.036489   41.155259
      3          6           0       32.779150  -31.562622   40.967819
      4          8           0       33.215500  -31.989121   39.910960
      5          6           0       31.503230  -29.502541   42.050931
      6          6           0       31.504634  -27.989536   42.100922
      7          6           0       32.200119  -27.298308   43.106132
      8          6           0       30.868183  -27.237994   41.104992
      9          6           0       32.262810  -25.909190   43.124713
     10          6           0       30.917434  -25.846200   41.110140
     11          6           0       31.617308  -25.173544   42.121592
     12          8           0       31.710386  -23.822358   42.193464
     13          1           0       34.106591  -29.814678   42.655049
     14          1           0       32.535715  -29.626751   40.148025
     15          1           0       30.557374  -29.884222   41.651441
     16          1           0       31.606348  -29.907733   43.065618
     17          1           0       32.693224  -27.854675   43.902058
     18          1           0       30.315938  -27.744340   40.316557
     19          1           0       32.791915  -25.375420   43.906964
     20          1           0       30.407490  -25.281258   40.333294
     21          1           0       31.211034  -23.410763   41.470242
     22          1           0       34.798758  -30.022196   41.125150
     23          1           0       34.063739  -28.548577   41.611470
     24          7           0       32.495572  -32.342412   42.056006
     25          6           0       33.094081  -33.685466   42.179662
     26          6           0       34.521349  -33.389631   42.690537
     27          8           0       35.464974  -33.338025   41.907495
     28          6           0       32.197278  -34.687688   42.935639
     29          6           0       31.708440  -34.256963   44.330180
     30          6           0       32.896856  -36.053564   42.999967
     31          1           0       32.282340  -31.868729   42.924543
     32          1           0       33.231722  -34.049169   41.161114
     33          1           0       31.305907  -34.781601   42.301880
     34          1           0       30.898133  -34.918423   44.651597
     35          1           0       32.489714  -34.348230   45.096118
     36          1           0       31.306084  -33.236446   44.350915
     37          1           0       33.802964  -36.003294   43.616787
     38          1           0       33.185719  -36.404505   42.003484
     39          1           0       32.234881  -36.803950   43.443018
     40          7           0       34.633089  -32.974134   43.989391
     41          6           0       35.625831  -31.973398   44.392835
     42          6           0       34.932873  -30.907116   45.235125
     43          8           0       35.318271  -30.424086   46.263631
     44          6           0       36.898998  -32.512754   45.056101
     45          6           0       37.947783  -33.049000   44.066347
     46          6           0       38.607010  -31.991109   43.146085
     47          7           0       37.891044  -31.725536   41.894982
     48          6           0       37.049747  -30.678442   41.654419
     49          7           0       36.900975  -29.566394   42.292305
     50          7           0       36.151535  -30.855718   40.543654
     51          8           0       33.759466  -30.478365   44.628230
     52          1           0       33.386647  -29.799396   45.224712
     53          1           0       33.824021  -33.082462   44.583416
     54          1           0       35.906381  -31.435560   43.485083
     55          1           0       36.618453  -33.300339   45.764401
     56          1           0       37.341319  -31.705016   45.649502
     57          1           0       37.516954  -33.845017   43.448649
     58          1           0       38.748553  -33.508289   44.657538
     59          1           0       39.610661  -32.332371   42.872751
     60          1           0       38.744007  -31.045255   43.680108
     61          1           0       37.710994  -32.554191   41.344221
     62          1           0       37.602587  -29.446155   43.023814
     63          1           0       36.478069  -30.366151   39.713023
     64          1           0       35.932840  -31.827597   40.327848
 ---------------------------------------------------------------------

 SCF Done:  E(RB3LYP) =  -1486.54858947     A.U. after    1 cycles

 Alpha  occ. eigenvalues --  -19.34160 -19.27911 -19.27411 -19.24526 -19.24439
 Alpha  occ. eigenvalues --  -14.55149 -14.49210 -14.48682 -14.46618 -14.46530
 Alpha  occ. eigenvalues --  -14.40667 -10.45554 -10.41925 -10.41395 -10.40154
 Alpha  occ. eigenvalues --  -10.38052 -10.36223 -10.35373 -10.34893 -10.32959
 Alpha  occ. eigenvalues --  -10.32905 -10.30976 -10.30639 -10.30508 -10.30046
 Alpha  occ. eigenvalues --  -10.29600 -10.29374 -10.29355 -10.29046 -10.29008
 Alpha  occ. eigenvalues --  -10.27599  -1.24092  -1.17045  -1.16060  -1.15709
 Alpha  occ. eigenvalues --   -1.15529  -1.10656  -1.08980  -1.05987  -1.04726
 Alpha  occ. eigenvalues --   -1.00096  -0.96553  -0.95999  -0.92742  -0.91159
 Alpha  occ. eigenvalues --   -0.90475  -0.86224  -0.85550  -0.85188  -0.82194
 Alpha  occ. eigenvalues --   -0.79897  -0.79423  -0.78078  -0.74272  -0.73053
 Alpha  occ. eigenvalues --   -0.72390  -0.71532  -0.71000  -0.70379  -0.69693
 Alpha  occ. eigenvalues --   -0.69383  -0.68660  -0.68088  -0.66070  -0.65474
 Alpha  occ. eigenvalues --   -0.64914  -0.63589  -0.63130  -0.62052  -0.61769
 Alpha  occ. eigenvalues --   -0.60887  -0.59639  -0.59208  -0.58628  -0.58280
 Alpha  occ. eigenvalues --   -0.57211  -0.57073  -0.56644  -0.55919  -0.54927
 Alpha  occ. eigenvalues --   -0.54844  -0.54458  -0.53906  -0.53470  -0.53025
 Alpha  occ. eigenvalues --   -0.52805  -0.52630  -0.52590  -0.51779  -0.50646
 Alpha  occ. eigenvalues --   -0.50330  -0.50166  -0.49878  -0.49068  -0.48699
 Alpha  occ. eigenvalues --   -0.48480  -0.48319  -0.46813  -0.46360  -0.46047
 Alpha  occ. eigenvalues --   -0.45119  -0.44991  -0.44715  -0.44253  -0.44128
 Alpha  occ. eigenvalues --   -0.43983  -0.43567  -0.41454  -0.40904  -0.39789
 Alpha  occ. eigenvalues --   -0.38732  -0.38120  -0.37880  -0.36275  -0.36010
 Alpha  occ. eigenvalues --   -0.33796  -0.32281
 Alpha virt. eigenvalues --   -0.13927  -0.12433  -0.11217  -0.10420  -0.09818
 Alpha virt. eigenvalues --   -0.08684  -0.07672  -0.04597  -0.04315  -0.02459
 Alpha virt. eigenvalues --   -0.01964  -0.01644  -0.01031  -0.00768  -0.00281

 Mulliken charges:
               1
     1  N   -0.803325
     2  C   -0.084815
     3  C    0.604881
     4  O   -0.480303
     5  C   -0.389404
     6  C    0.146199
     7  C   -0.212085
     8  C   -0.187207
     9  C   -0.149876
    10  C   -0.184815
    11  C    0.359828
    12  O   -0.621562
    13  H    0.410720
    14  H    0.216703
    15  H    0.199930
    16  H    0.150444
    17  H    0.100450
    18  H    0.150005
    19  H    0.168812
    20  H    0.151859
    21  H    0.423008
    22  H    0.475412
    23  H    0.402965
    24  N   -0.616182
    25  C   -0.066480
    26  C    0.586921
    27  O   -0.523136
    28  C   -0.091294
    29  C   -0.494996
    30  C   -0.460312
    31  H    0.346168
    32  H    0.216826
    33  H    0.169831
    34  H    0.191697
    35  H    0.155737
    36  H    0.140441
    37  H    0.153849
    38  H    0.170247
    39  H    0.174897
    40  N   -0.599908
    41  C   -0.046583
    42  C    0.563092
    43  O   -0.402702
    44  C   -0.270375
    45  C   -0.281808
    46  C   -0.170234
    47  N   -0.545019
    48  C    0.565159
    49  N   -0.671211
    50  N   -0.832942
    51  O   -0.620661
    52  H    0.437994
    53  H    0.347822
    54  H    0.199432
    55  H    0.167403
    56  H    0.179145
    57  H    0.170894
    58  H    0.167774
    59  H    0.186596
    60  H    0.162458
    61  H    0.347939
    62  H    0.298506
    63  H    0.366457
    64  H    0.378733
 Sum of Mulliken charges =   1.00000

 Dipole moment (field-independent basis, Debye):
    X=            162.0469    Y=           -147.2452    Z=            204.3121  Tot=            299.4725
 Quadrupole moment (field-independent basis, Debye-Ang):
   XX=           5326.8044   YY=           4382.6223   ZZ=           8520.0124
   XY=          -4987.7168   XZ=           6895.6636   YZ=          -6287.4367

 Normal termination of Gaussian 16 at Tue May 31 11:50:36 2022.
