 Gaussian 16, Revision C.01,
 Gaussian 16:  ES64L-G16RevC.01  3-Jul-2019

 ----------------------------------------------------------------------
 # B3LYP/6-31G* empiricaldispersion=gd3 guess=read geom=check nosymm in
 tegral(ultrafinegrid)
 ----------------------------------------------------------------------

 ------------------------------------------------------
 Candidate Structure: Conf:651 Charge calc in gas phase
 ------------------------------------------------------
 Structure from the checkpoint file:  "conf-651.chk"
 Charge =  1 Multiplicity = 1

                          Input orientation:
 ---------------------------------------------------------------------
 Center     Atomic      Atomic             Coordinates (Angstroms)
 Number     Number       Type             X           Y           Z
 ---------------------------------------------------------------------
      1          7           0       32.348409  -30.620568   39.885397
      2          6           0       32.845897  -31.959078   40.383035
      3          6           0       34.362797  -31.737575   40.569465
      4          8           0       34.895001  -30.811573   39.962017
      5          6           0       32.054461  -32.368011   41.641211
      6          6           0       30.559016  -32.270556   41.430189
      7          6           0       29.858785  -31.121533   41.837156
      8          6           0       29.852761  -33.287519   40.775173
      9          6           0       28.495057  -30.992111   41.598919
     10          6           0       28.485953  -33.170995   40.533315
     11          6           0       27.799396  -32.019642   40.945505
     12          8           0       26.472117  -31.832366   40.746569
     13          1           0       32.391558  -29.912796   40.666958
     14          1           0       32.668750  -32.675607   39.573930
     15          1           0       32.340082  -33.395991   41.895228
     16          1           0       32.359413  -31.719756   42.469458
     17          1           0       30.387602  -30.324900   42.356248
     18          1           0       30.368753  -34.192218   40.459851
     19          1           0       27.946832  -30.112774   41.920117
     20          1           0       27.950590  -33.975183   40.034126
     21          1           0       26.079994  -32.608570   40.315607
     22          1           0       32.988735  -30.281407   39.155112
     23          1           0       31.381662  -30.687124   39.552945
     24          7           0       35.034210  -32.508149   41.457326
     25          6           0       36.377368  -32.079618   41.893268
     26          6           0       36.252286  -30.658508   42.487833
     27          8           0       37.006140  -29.745148   42.165515
     28          6           0       37.042389  -33.115250   42.829762
     29          6           0       36.259261  -33.393015   44.123549
     30          6           0       38.482829  -32.681904   43.146745
     31          1           0       34.582647  -33.284943   41.920077
     32          1           0       36.998866  -31.950526   41.004445
     33          1           0       37.084173  -34.047403   42.248893
     34          1           0       35.220103  -33.705532   43.949123
     35          1           0       36.740307  -34.203150   44.679153
     36          1           0       36.240226  -32.513053   44.775679
     37          1           0       39.059173  -32.512739   42.231293
     38          1           0       38.988149  -33.462137   43.723959
     39          1           0       38.516428  -31.757947   43.736387
     40          7           0       35.213085  -30.472767   43.358523
     41          6           0       34.700535  -29.125983   43.637787
     42          6           0       33.913310  -28.796059   42.363685
     43          8           0       32.752000  -29.162708   42.193716
     44          6           0       33.848504  -29.079760   44.907058
     45          6           0       34.551535  -29.593186   46.177076
     46          6           0       35.865685  -28.888272   46.540081
     47          7           0       36.908806  -29.229951   45.584969
     48          6           0       38.153925  -28.580989   45.588099
     49          7           0       38.549263  -27.618592   46.332109
     50          7           0       38.992891  -29.129081   44.609976
     51          8           0       34.579290  -28.229159   41.365728
     52          1           0       35.542831  -28.218443   41.549859
     53          1           0       34.552666  -31.230709   43.471363
     54          1           0       35.569640  -28.477533   43.741645
     55          1           0       32.926276  -29.649888   44.738101
     56          1           0       33.539103  -28.037628   45.053083
     57          1           0       34.737407  -30.673324   46.090369
     58          1           0       33.852520  -29.476805   47.012862
     59          1           0       36.143705  -29.147926   47.574286
     60          1           0       35.723248  -27.800512   46.513248
     61          1           0       36.997086  -30.224507   45.410013
     62          1           0       37.899458  -27.426600   47.094966
     63          1           0       39.876412  -28.631324   44.577381
     64          1           0       38.560066  -29.194645   43.692158
 ---------------------------------------------------------------------

 SCF Done:  E(RB3LYP) =  -1486.54877705     A.U. after    3 cycles

 Alpha  occ. eigenvalues --  -19.32618 -19.28347 -19.28167 -19.27225 -19.25323
 Alpha  occ. eigenvalues --  -14.58505 -14.51430 -14.49837 -14.42653 -14.40079
 Alpha  occ. eigenvalues --  -14.35310 -10.46002 -10.44537 -10.42226 -10.41025
 Alpha  occ. eigenvalues --  -10.36339 -10.36229 -10.36194 -10.34695 -10.34574
 Alpha  occ. eigenvalues --  -10.32056 -10.31561 -10.31128 -10.31118 -10.30771
 Alpha  occ. eigenvalues --  -10.30766 -10.30248 -10.29827 -10.29622 -10.29611
 Alpha  occ. eigenvalues --  -10.27501  -1.24089  -1.19892  -1.17082  -1.16490
 Alpha  occ. eigenvalues --   -1.15586  -1.13192  -1.07934  -1.05906  -1.04436
 Alpha  occ. eigenvalues --   -0.97589  -0.96058  -0.94168  -0.92237  -0.91051
 Alpha  occ. eigenvalues --   -0.90452  -0.86764  -0.86264  -0.85227  -0.82947
 Alpha  occ. eigenvalues --   -0.79992  -0.79319  -0.77890  -0.75326  -0.74559
 Alpha  occ. eigenvalues --   -0.73963  -0.73563  -0.72199  -0.71342  -0.70741
 Alpha  occ. eigenvalues --   -0.70445  -0.69613  -0.67662  -0.66234  -0.65583
 Alpha  occ. eigenvalues --   -0.65390  -0.63420  -0.62161  -0.61844  -0.61000
 Alpha  occ. eigenvalues --   -0.60579  -0.59676  -0.59647  -0.58394  -0.58116
 Alpha  occ. eigenvalues --   -0.58045  -0.57747  -0.56732  -0.55595  -0.55298
 Alpha  occ. eigenvalues --   -0.55190  -0.54664  -0.54189  -0.53754  -0.53563
 Alpha  occ. eigenvalues --   -0.52872  -0.52719  -0.52218  -0.51700  -0.51433
 Alpha  occ. eigenvalues --   -0.51119  -0.49965  -0.49688  -0.49349  -0.48979
 Alpha  occ. eigenvalues --   -0.48635  -0.47716  -0.47047  -0.45821  -0.45779
 Alpha  occ. eigenvalues --   -0.45584  -0.45127  -0.44912  -0.44810  -0.44498
 Alpha  occ. eigenvalues --   -0.44406  -0.43246  -0.42710  -0.41791  -0.41067
 Alpha  occ. eigenvalues --   -0.38652  -0.38019  -0.36795  -0.33176  -0.33128
 Alpha  occ. eigenvalues --   -0.32314  -0.30071
 Alpha virt. eigenvalues --   -0.14664  -0.13917  -0.11997  -0.11396  -0.10981
 Alpha virt. eigenvalues --   -0.08081  -0.07097  -0.05404  -0.04036  -0.03093
 Alpha virt. eigenvalues --   -0.02880  -0.02426  -0.01871  -0.01432  -0.01109

 Mulliken charges:
               1
     1  N   -0.758005
     2  C   -0.116898
     3  C    0.652530
     4  O   -0.509845
     5  C   -0.395458
     6  C    0.120185
     7  C   -0.229421
     8  C   -0.191337
     9  C   -0.154539
    10  C   -0.187168
    11  C    0.361704
    12  O   -0.618449
    13  H    0.447412
    14  H    0.225741
    15  H    0.175912
    16  H    0.181899
    17  H    0.169569
    18  H    0.141851
    19  H    0.173862
    20  H    0.153011
    21  H    0.423807
    22  H    0.421668
    23  H    0.409719
    24  N   -0.651066
    25  C   -0.018986
    26  C    0.612052
    27  O   -0.527497
    28  C   -0.123674
    29  C   -0.482674
    30  C   -0.473100
    31  H    0.351453
    32  H    0.216146
    33  H    0.163589
    34  H    0.122520
    35  H    0.192720
    36  H    0.163054
    37  H    0.170028
    38  H    0.173697
    39  H    0.181487
    40  N   -0.591123
    41  C   -0.055234
    42  C    0.638799
    43  O   -0.522576
    44  C   -0.297398
    45  C   -0.294438
    46  C   -0.132438
    47  N   -0.622800
    48  C    0.559544
    49  N   -0.625405
    50  N   -0.775581
    51  O   -0.543483
    52  H    0.458368
    53  H    0.339557
    54  H    0.221220
    55  H    0.158243
    56  H    0.177214
    57  H    0.137635
    58  H    0.172765
    59  H    0.161525
    60  H    0.164555
    61  H    0.331045
    62  H    0.282783
    63  H    0.342487
    64  H    0.347241
 Sum of Mulliken charges =   1.00000

 Dipole moment (field-independent basis, Debye):
    X=            155.6290    Y=           -154.8489    Z=            199.2481  Tot=            296.4766
 Quadrupole moment (field-independent basis, Debye-Ang):
   XX=           4881.8062   YY=           4821.5572   ZZ=           8107.8194
   XY=          -5026.8165   XZ=           6467.0882   YZ=          -6421.8244

 Normal termination of Gaussian 16 at Tue May 31 11:32:17 2022.
