 Gaussian 16, Revision C.01,
 Gaussian 16:  ES64L-G16RevC.01  3-Jul-2019

 ----------------------------------------------------------------------
 # B3LYP/6-31G* empiricaldispersion=gd3 guess=read geom=check nosymm in
 tegral(ultrafinegrid)
 ----------------------------------------------------------------------

 ------------------------------------------------------
 Candidate Structure: Conf:879 Charge calc in gas phase
 ------------------------------------------------------
 Structure from the checkpoint file:  "conf-879.chk"
 Charge =  1 Multiplicity = 1

                          Input orientation:
 ---------------------------------------------------------------------
 Center     Atomic      Atomic             Coordinates (Angstroms)
 Number     Number       Type             X           Y           Z
 ---------------------------------------------------------------------
      1          7           0       32.240553  -31.099432   40.175132
      2          6           0       31.343796  -31.229564   41.389188
      3          6           0       32.152087  -32.202380   42.276089
      4          8           0       32.852413  -33.038509   41.707460
      5          6           0       31.021912  -29.834138   41.950438
      6          6           0       30.596229  -28.870759   40.861972
      7          6           0       31.457774  -27.843719   40.442806
      8          6           0       29.366559  -29.016258   40.204471
      9          6           0       31.108156  -26.985733   39.406119
     10          6           0       29.003490  -28.165782   39.162492
     11          6           0       29.874610  -27.143247   38.757294
     12          8           0       29.595113  -26.277942   37.755138
     13          1           0       31.769770  -30.599660   39.413719
     14          1           0       30.432930  -31.723212   41.036063
     15          1           0       30.229726  -29.954563   42.699978
     16          1           0       31.905978  -29.443452   42.465728
     17          1           0       32.403985  -27.694918   40.959235
     18          1           0       28.669860  -29.791474   40.517354
     19          1           0       31.763228  -26.180046   39.091839
     20          1           0       28.040373  -28.286592   38.672526
     21          1           0       28.707066  -26.440484   37.398361
     22          1           0       33.102471  -30.585522   40.446847
     23          1           0       32.535078  -32.051762   39.908274
     24          7           0       32.142296  -32.020091   43.609188
     25          6           0       33.159825  -32.691435   44.432163
     26          6           0       34.578401  -32.306154   43.951903
     27          8           0       35.493570  -33.110186   44.044150
     28          6           0       32.927105  -32.404613   45.936723
     29          6           0       33.083100  -30.919224   46.304177
     30          6           0       33.845241  -33.281554   46.800316
     31          1           0       31.520435  -31.347510   44.036665
     32          1           0       33.091955  -33.767555   44.255522
     33          1           0       31.887589  -32.703886   46.134814
     34          1           0       32.811276  -30.763518   47.352248
     35          1           0       34.119168  -30.586780   46.178187
     36          1           0       32.441694  -30.253328   45.709439
     37          1           0       33.709218  -34.344155   46.576000
     38          1           0       33.621992  -33.124619   47.860034
     39          1           0       34.899500  -33.041018   46.632365
     40          7           0       34.715297  -31.040722   43.449895
     41          6           0       35.965115  -30.499574   42.946211
     42          6           0       35.784099  -29.701121   41.665355
     43          8           0       36.674694  -29.185422   41.049227
     44          6           0       36.700022  -29.603116   43.979938
     45          6           0       37.248252  -30.364896   45.197209
     46          6           0       38.547167  -31.138529   44.936511
     47          7           0       38.355113  -32.222365   43.982312
     48          6           0       39.469376  -32.966950   43.558351
     49          7           0       40.712643  -32.719817   43.742116
     50          7           0       39.084310  -34.114260   42.862161
     51          8           0       34.455909  -29.514566   41.246508
     52          1           0       34.542991  -28.855520   40.527653
     53          1           0       33.949762  -30.394641   43.578275
     54          1           0       36.627592  -31.338821   42.708929
     55          1           0       35.998535  -28.824649   44.310916
     56          1           0       37.520954  -29.096480   43.462052
     57          1           0       36.484846  -31.042652   45.600581
     58          1           0       37.453667  -29.633553   45.987649
     59          1           0       38.947116  -31.502818   45.897290
     60          1           0       39.293036  -30.447280   44.524813
     61          1           0       37.548992  -32.806478   44.192606
     62          1           0       40.865143  -31.941164   44.381476
     63          1           0       39.881829  -34.564525   42.428160
     64          1           0       38.312540  -33.985237   42.217561
 ---------------------------------------------------------------------

 SCF Done:  E(RB3LYP) =  -1486.52817912     A.U. after    3 cycles

 Alpha  occ. eigenvalues --  -19.34704 -19.29382 -19.27560 -19.27423 -19.23558
 Alpha  occ. eigenvalues --  -14.60720 -14.51591 -14.48573 -14.40371 -14.38707
 Alpha  occ. eigenvalues --  -14.33296 -10.45472 -10.44804 -10.42037 -10.40966
 Alpha  occ. eigenvalues --  -10.37575 -10.35813 -10.35777 -10.35649 -10.33058
 Alpha  occ. eigenvalues --  -10.32783 -10.32536 -10.32507 -10.31725 -10.31648
 Alpha  occ. eigenvalues --  -10.31102 -10.29699 -10.29421 -10.29288 -10.28070
 Alpha  occ. eigenvalues --  -10.27229  -1.24134  -1.20307  -1.17756  -1.15728
 Alpha  occ. eigenvalues --   -1.15503  -1.14860  -1.08026  -1.04932  -1.02556
 Alpha  occ. eigenvalues --   -0.99011  -0.94872  -0.94341  -0.92370  -0.90095
 Alpha  occ. eigenvalues --   -0.88762  -0.87817  -0.87693  -0.84775  -0.82855
 Alpha  occ. eigenvalues --   -0.80967  -0.79322  -0.77340  -0.75883  -0.75264
 Alpha  occ. eigenvalues --   -0.74930  -0.73705  -0.72617  -0.72034  -0.71188
 Alpha  occ. eigenvalues --   -0.69692  -0.69103  -0.67077  -0.66762  -0.65058
 Alpha  occ. eigenvalues --   -0.64266  -0.63812  -0.62210  -0.61957  -0.61397
 Alpha  occ. eigenvalues --   -0.59933  -0.59694  -0.59184  -0.59000  -0.58124
 Alpha  occ. eigenvalues --   -0.57419  -0.56955  -0.56738  -0.56274  -0.55532
 Alpha  occ. eigenvalues --   -0.55279  -0.55065  -0.54716  -0.54319  -0.53753
 Alpha  occ. eigenvalues --   -0.53005  -0.52641  -0.52067  -0.51599  -0.50789
 Alpha  occ. eigenvalues --   -0.50515  -0.49823  -0.49625  -0.49156  -0.48882
 Alpha  occ. eigenvalues --   -0.48615  -0.47631  -0.46436  -0.46227  -0.45874
 Alpha  occ. eigenvalues --   -0.45428  -0.45310  -0.45203  -0.44661  -0.44286
 Alpha  occ. eigenvalues --   -0.42882  -0.41945  -0.41761  -0.41323  -0.41137
 Alpha  occ. eigenvalues --   -0.38302  -0.37447  -0.36486  -0.34511  -0.31222
 Alpha  occ. eigenvalues --   -0.30429  -0.28069
 Alpha virt. eigenvalues --   -0.14900  -0.13543  -0.12849  -0.12293  -0.09923
 Alpha virt. eigenvalues --   -0.09527  -0.07864  -0.07108  -0.04630  -0.04278
 Alpha virt. eigenvalues --   -0.03791  -0.03423  -0.02314  -0.01633  -0.00492

 Mulliken charges:
               1
     1  N   -0.758336
     2  C   -0.119280
     3  C    0.659650
     4  O   -0.511308
     5  C   -0.396631
     6  C    0.118709
     7  C   -0.222868
     8  C   -0.199203
     9  C   -0.150669
    10  C   -0.185408
    11  C    0.362506
    12  O   -0.615101
    13  H    0.411969
    14  H    0.231884
    15  H    0.193874
    16  H    0.177904
    17  H    0.138279
    18  H    0.149320
    19  H    0.176633
    20  H    0.159319
    21  H    0.426739
    22  H    0.434933
    23  H    0.426645
    24  N   -0.651184
    25  C   -0.022558
    26  C    0.627829
    27  O   -0.503930
    28  C   -0.127249
    29  C   -0.479586
    30  C   -0.454706
    31  H    0.354871
    32  H    0.215867
    33  H    0.157280
    34  H    0.188774
    35  H    0.170471
    36  H    0.116007
    37  H    0.171443
    38  H    0.168233
    39  H    0.175904
    40  N   -0.610688
    41  C   -0.072637
    42  C    0.601331
    43  O   -0.402588
    44  C   -0.268856
    45  C   -0.307801
    46  C   -0.129749
    47  N   -0.646184
    48  C    0.580688
    49  N   -0.639747
    50  N   -0.745854
    51  O   -0.640041
    52  H    0.424888
    53  H    0.334286
    54  H    0.246810
    55  H    0.136568
    56  H    0.192738
    57  H    0.152431
    58  H    0.163413
    59  H    0.154928
    60  H    0.160786
    61  H    0.365717
    62  H    0.279997
    63  H    0.340597
    64  H    0.311942
 Sum of Mulliken charges =   1.00000

 Dipole moment (field-independent basis, Debye):
    X=            147.6322    Y=           -143.0990    Z=            199.4934  Tot=            286.4790
 Quadrupole moment (field-independent basis, Debye-Ang):
   XX=           4328.6255   YY=           4079.4284   ZZ=           8153.3990
   XY=          -4380.5596   XZ=           6146.8606   YZ=          -5946.3883

 Normal termination of Gaussian 16 at Tue May 31 11:51:02 2022.
