 Gaussian 16, Revision C.01,
 Gaussian 16:  ES64L-G16RevC.01  3-Jul-2019

 ----------------------------------------------------------------------
 # B3LYP/6-31G* empiricaldispersion=gd3 guess=read geom=check nosymm in
 tegral(ultrafinegrid)
 ----------------------------------------------------------------------

 ------------------------------------------------------
 Candidate Structure: Conf:197 Charge calc in gas phase
 ------------------------------------------------------
 Structure from the checkpoint file:  "conf-197.chk"
 Charge =  1 Multiplicity = 1

                          Input orientation:
 ---------------------------------------------------------------------
 Center     Atomic      Atomic             Coordinates (Angstroms)
 Number     Number       Type             X           Y           Z
 ---------------------------------------------------------------------
      1          7           0        7.334399   30.960084   12.109972
      2          6           0        7.197739   32.200447   12.862351
      3          6           0        6.686976   33.396276   12.036825
      4          8           0        5.743865   34.049267   12.463440
      5          6           0        8.414333   32.699695   13.713119
      6          6           0        7.934035   33.375354   14.999652
      7          6           0        7.469450   32.362794   16.020560
      8          8           0        7.815474   31.181524   16.054157
      9          8           0        6.654244   32.887091   16.932864
     10          1           0        6.391305   32.186724   17.561396
     11          1           0        6.374633   32.022659   13.561089
     12          1           0        9.052390   31.851567   13.976093
     13          1           0        9.036856   33.403746   13.149959
     14          1           0        7.119953   34.079219   14.796880
     15          1           0        8.736252   33.954041   15.478250
     16          1           0        7.954904   30.989483   11.310173
     17          1           0        7.607038   30.192241   12.716244
     18          7           0        7.328221   33.765254   10.876889
     19          6           0        8.633161   33.380198   10.371694
     20          6           0        9.582733   34.592612   10.441668
     21          8           0        9.141780   35.730298   10.444667
     22          6           0        8.536186   32.855328    8.906153
     23          6           0        7.918844   31.494196    8.857140
     24          6           0        6.581480   31.182834    8.924695
     25          6           0        8.632946   30.242807    8.925253
     26          6           0        7.658761   29.209525    9.045912
     27          6           0        9.993381   29.888143    8.882490
     28          7           0        6.422950   29.817754    9.024162
     29          6           0        8.013028   27.859618    9.151948
     30          6           0       10.349454   28.548411    8.986435
     31          6           0        9.367757   27.543981    9.126552
     32          1           0        7.024430   34.680497   10.552928
     33          1           0        9.021308   32.576658   10.994278
     34          1           0        9.540372   32.830689    8.466433
     35          1           0        7.963699   33.590188    8.329838
     36          1           0        5.724223   31.840390    8.933879
     37          1           0        5.537031   29.346069    9.123213
     38          1           0       10.761488   30.645212    8.756929
     39          1           0        7.256838   27.084422    9.238894
     40          1           0       11.398624   28.267164    8.949177
     41          1           0        9.673941   26.504424    9.198388
     42          7           0       10.939279   34.350353   10.424046
     43          6           0       11.627732   33.094073   10.652662
     44          6           0       12.456153   33.209208   11.943008
     45          8           0       12.960694   34.291644   12.212625
     46          6           0       12.557712   32.753646    9.457298
     47          6           0       13.715808   33.714926    9.232516
     48          8           0       13.026763   31.404340    9.700804
     49          1           0       13.545035   31.117021    8.931129
     50          1           0       11.497188   35.181555   10.597545
     51          1           0       10.898476   32.295956   10.704958
     52          1           0       11.911492   32.739756    8.569868
     53          1           0       14.293149   33.403681    8.354488
     54          1           0       14.380528   33.752201   10.099004
     55          1           0       13.343067   34.724898    9.037309
     56          7           0       12.745441   32.119476   12.734890
     57          6           0       12.201070   30.778385   12.985197
     58          6           0       13.282514   29.708021   12.780222
     59          8           0       13.440946   28.811342   13.597859
     60          6           0       10.939343   30.384101   12.204913
     61          6           0       10.389969   28.963128   12.435432
     62          6           0       10.275622   28.402359   13.869062
     63          7           0       10.011829   29.381162   14.940049
     64          6           0       10.760291   29.509431   16.047831
     65          7           0       12.033733   29.097728   16.075264
     66          7           0       10.211090   30.060820   17.144128
     67          8           0       13.994023   29.771816   11.670508
     68          1           0       13.712772   30.535908   11.102993
     69          1           0       13.387523   32.419473   13.463678
     70          1           0       11.959084   30.753249   14.047917
     71          1           0       11.133726   30.444000   11.134054
     72          1           0       10.164217   31.114375   12.443036
     73          1           0        9.412892   28.937820   11.943187
     74          1           0       10.997715   28.245426   11.874380
     75          1           0        9.472365   27.657813   13.896812
     76          1           0       11.192974   27.878090   14.127504
     77          1           0        9.098629   29.828856   14.983682
     78          1           0       12.529144   29.052158   16.954288
     79          1           0       12.565264   28.899282   15.214842
     80          1           0        9.246639   30.383949   17.103419
     81          1           0       10.803038   30.439407   17.869712
 ---------------------------------------------------------------------

 SCF Done:  E(RB3LYP) =  -2054.04308287     A.U. after    3 cycles

 Alpha  occ. eigenvalues --  -19.32325 -19.30143 -19.29206 -19.27739 -19.25939
 Alpha  occ. eigenvalues --  -19.22974 -19.20938 -19.19269 -14.51598 -14.51184
 Alpha  occ. eigenvalues --  -14.50721 -14.48356 -14.46384 -14.45791 -14.43981
 Alpha  occ. eigenvalues --  -14.41487 -10.47902 -10.45493 -10.43919 -10.40737
 Alpha  occ. eigenvalues --  -10.38377 -10.37083 -10.36913 -10.36512 -10.35694
 Alpha  occ. eigenvalues --  -10.35215 -10.33444 -10.32045 -10.31712 -10.31159
 Alpha  occ. eigenvalues --  -10.31146 -10.30597 -10.30293 -10.30114 -10.28878
 Alpha  occ. eigenvalues --  -10.27969 -10.27627 -10.27519 -10.27264 -10.27111
 Alpha  occ. eigenvalues --  -10.26979 -10.26680  -1.23687  -1.21764  -1.16281
 Alpha  occ. eigenvalues --   -1.15964  -1.15164  -1.14421  -1.13400  -1.13139
 Alpha  occ. eigenvalues --   -1.11332  -1.06418  -1.05538  -1.04232  -1.04106
 Alpha  occ. eigenvalues --   -1.02584  -1.00923  -0.98405  -0.92832  -0.92489
 Alpha  occ. eigenvalues --   -0.90766  -0.89469  -0.88853  -0.87360  -0.84673
 Alpha  occ. eigenvalues --   -0.82934  -0.82216  -0.81897  -0.81015  -0.80464
 Alpha  occ. eigenvalues --   -0.78369  -0.76070  -0.75434  -0.74620  -0.73630
 Alpha  occ. eigenvalues --   -0.73020  -0.72746  -0.70843  -0.70626  -0.70070
 Alpha  occ. eigenvalues --   -0.69225  -0.68784  -0.67726  -0.67320  -0.66014
 Alpha  occ. eigenvalues --   -0.65514  -0.64999  -0.64685  -0.63994  -0.63294
 Alpha  occ. eigenvalues --   -0.62425  -0.62231  -0.61457  -0.60646  -0.60133
 Alpha  occ. eigenvalues --   -0.59682  -0.59311  -0.58867  -0.58473  -0.58344
 Alpha  occ. eigenvalues --   -0.57634  -0.57371  -0.56821  -0.56526  -0.56093
 Alpha  occ. eigenvalues --   -0.55626  -0.55464  -0.55131  -0.54789  -0.54510
 Alpha  occ. eigenvalues --   -0.54105  -0.53286  -0.52996  -0.52443  -0.51965
 Alpha  occ. eigenvalues --   -0.51630  -0.51439  -0.51173  -0.50729  -0.50444
 Alpha  occ. eigenvalues --   -0.49896  -0.49741  -0.49455  -0.48849  -0.48780
 Alpha  occ. eigenvalues --   -0.48515  -0.48171  -0.47663  -0.47349  -0.46860
 Alpha  occ. eigenvalues --   -0.46727  -0.46589  -0.46249  -0.45609  -0.45114
 Alpha  occ. eigenvalues --   -0.45021  -0.44768  -0.44452  -0.43930  -0.42954
 Alpha  occ. eigenvalues --   -0.42366  -0.42166  -0.41826  -0.41368  -0.41109
 Alpha  occ. eigenvalues --   -0.40637  -0.40212  -0.37370  -0.36664  -0.36345
 Alpha  occ. eigenvalues --   -0.35214  -0.35036  -0.34214  -0.33328  -0.31784
 Alpha  occ. eigenvalues --   -0.30886  -0.28790
 Alpha virt. eigenvalues --   -0.12655  -0.12209  -0.11605  -0.09989  -0.09964
 Alpha virt. eigenvalues --   -0.07945  -0.07384  -0.06521  -0.06385  -0.05607
 Alpha virt. eigenvalues --   -0.04839  -0.04017  -0.03233  -0.02580  -0.02046

 Mulliken charges:
               1
     1  N   -0.759753
     2  C   -0.057820
     3  C    0.592693
     4  O   -0.490166
     5  C   -0.306879
     6  C   -0.371287
     7  C    0.596423
     8  O   -0.527940
     9  O   -0.515267
    10  H    0.427457
    11  H    0.175821
    12  H    0.130092
    13  H    0.165290
    14  H    0.237328
    15  H    0.198403
    16  H    0.349744
    17  H    0.296172
    18  N   -0.578104
    19  C   -0.083778
    20  C    0.606168
    21  O   -0.481337
    22  C   -0.357103
    23  C    0.036862
    24  C    0.041489
    25  C    0.047966
    26  C    0.322300
    27  C   -0.229777
    28  N   -0.672351
    29  C   -0.164170
    30  C   -0.155888
    31  C   -0.159775
    32  H    0.356000
    33  H    0.129575
    34  H    0.155576
    35  H    0.181326
    36  H    0.179721
    37  H    0.343307
    38  H    0.127858
    39  H    0.144184
    40  H    0.128323
    41  H    0.142175
    42  N   -0.603289
    43  C   -0.085828
    44  C    0.618973
    45  O   -0.492814
    46  C    0.128495
    47  C   -0.479030
    48  O   -0.661535
    49  H    0.429579
    50  H    0.362931
    51  H    0.166058
    52  H    0.166574
    53  H    0.162612
    54  H    0.188992
    55  H    0.182943
    56  N   -0.643150
    57  C   -0.057056
    58  C    0.638754
    59  O   -0.493087
    60  C   -0.344529
    61  C   -0.305289
    62  C   -0.178450
    63  N   -0.622021
    64  C    0.774773
    65  N   -0.788738
    66  N   -0.778792
    67  O   -0.569337
    68  H    0.467441
    69  H    0.347920
    70  H    0.159129
    71  H    0.206127
    72  H    0.164850
    73  H    0.180401
    74  H    0.188772
    75  H    0.194230
    76  H    0.203980
    77  H    0.393801
    78  H    0.370775
    79  H    0.432199
    80  H    0.404652
    81  H    0.367126
 Sum of Mulliken charges =   1.00000

 Dipole moment (field-independent basis, Debye):
    X=             50.6851    Y=            143.5625    Z=             67.1700  Tot=            166.4061
 Quadrupole moment (field-independent basis, Debye-Ang):
   XX=            312.8014   YY=           4032.2672   ZZ=            779.1335
   XY=           1537.2760   XZ=            700.4980   YZ=           2007.9305

 Normal termination of Gaussian 16 at Fri May 27 05:13:57 2022.
