 Gaussian 16, Revision C.01,
 Gaussian 16:  ES64L-G16RevC.01  3-Jul-2019

 ----------------------------------------------------------------------
 # B3LYP/6-31G* empiricaldispersion=gd3 guess=read geom=check nosymm in
 tegral(ultrafinegrid)
 ----------------------------------------------------------------------

 ------------------------------------------------------
 Candidate Structure: Conf:746 Charge calc in gas phase
 ------------------------------------------------------
 Structure from the checkpoint file:  "conf-746.chk"
 Charge =  1 Multiplicity = 1

                          Input orientation:
 ---------------------------------------------------------------------
 Center     Atomic      Atomic             Coordinates (Angstroms)
 Number     Number       Type             X           Y           Z
 ---------------------------------------------------------------------
      1          7           0        9.736051   28.841736   11.303505
      2          6           0        9.841122   28.789940    9.818211
      3          6           0       11.273257   28.854134    9.242493
      4          8           0       11.724417   27.853313    8.697226
      5          6           0        8.896481   29.803135    9.148801
      6          6           0        7.396329   29.447808    9.236558
      7          6           0        6.686515   29.736848   10.548392
      8          8           0        5.584042   30.275103   10.567091
      9          8           0        7.272653   29.373468   11.686786
     10          1           0        8.304432   29.055886   11.575894
     11          1           0        9.516439   27.785031    9.536178
     12          1           0        9.065798   30.821117    9.512432
     13          1           0        9.157116   29.833618    8.086052
     14          1           0        7.256382   28.378114    9.023873
     15          1           0        6.842821   29.995600    8.471095
     16          1           0       10.157102   28.006833   11.712949
     17          1           0       10.279896   29.615044   11.687602
     18          7           0       11.965433   30.032663    9.231385
     19          6           0       11.925110   31.201137   10.090123
     20          6           0       12.322315   32.408446    9.221748
     21          8           0       13.044105   32.238646    8.249937
     22          6           0       12.983654   31.095062   11.235995
     23          6           0       12.768000   29.937513   12.162539
     24          6           0       12.923948   28.599918   11.875915
     25          6           0       12.323442   30.013009   13.535532
     26          6           0       12.201648   28.678675   14.013713
     27          6           0       12.076133   31.077289   14.421574
     28          7           0       12.540005   27.838515   12.967120
     29          6           0       11.821392   28.385301   15.327529
     30          6           0       11.719606   30.789844   15.733278
     31          6           0       11.584632   29.458277   16.179961
     32          1           0       12.795488   30.003559    8.644257
     33          1           0       10.925380   31.325921   10.508390
     34          1           0       12.981904   32.032992   11.803760
     35          1           0       13.963702   31.033421   10.748327
     36          1           0       13.249636   28.118542   10.964416
     37          1           0       12.723235   26.849716   13.060756
     38          1           0       12.172225   32.108079   14.092270
     39          1           0       11.738860   27.359649   15.676068
     40          1           0       11.547946   31.603765   16.432418
     41          1           0       11.308896   29.266570   17.212733
     42          7           0       11.980648   33.664411    9.641746
     43          6           0       10.974863   34.091907   10.598009
     44          6           0        9.571981   33.600343   10.222893
     45          8           0        9.315135   33.209708    9.093573
     46          6           0       10.990190   35.665868   10.617692
     47          6           0       10.474189   36.302827    9.326776
     48          8           0       10.302049   36.164770   11.747807
     49          1           0        9.356975   36.234117   11.535528
     50          1           0       12.291011   34.359108    8.972062
     51          1           0       11.238110   33.771538   11.610315
     52          1           0       12.040280   35.938805   10.773744
     53          1           0       10.581526   37.388417    9.399099
     54          1           0        9.414967   36.065671    9.171325
     55          1           0       11.013276   35.964187    8.436846
     56          7           0        8.541244   33.766453   11.146448
     57          6           0        8.502988   33.401171   12.580758
     58          6           0        9.137979   34.446102   13.506314
     59          8           0        8.528637   35.390825   13.945928
     60          6           0        8.981421   31.968088   12.843541
     61          6           0        8.708882   31.443999   14.263004
     62          6           0        7.275157   31.615374   14.776066
     63          7           0        6.300016   31.017541   13.859364
     64          6           0        4.981495   31.228019   13.914082
     65          7           0        4.447688   31.893937   14.958654
     66          7           0        4.206184   30.800589   12.917417
     67          8           0       10.419806   34.158029   13.828926
     68          1           0       10.766954   34.933808   14.310461
     69          1           0        7.672233   33.509250   10.684892
     70          1           0        7.440359   33.473102   12.822942
     71          1           0       10.059130   31.902296   12.665278
     72          1           0        8.489120   31.330184   12.107468
     73          1           0        8.991787   30.386225   14.305349
     74          1           0        9.367316   31.950406   14.972635
     75          1           0        7.203120   31.147131   15.767653
     76          1           0        7.037128   32.679805   14.896196
     77          1           0        6.636882   30.359857   13.147958
     78          1           0        3.472293   32.153314   14.962411
     79          1           0        4.953632   31.999763   15.824876
     80          1           0        4.638281   30.525208   12.017217
     81          1           0        3.200060   30.821776   12.995648
 ---------------------------------------------------------------------

 SCF Done:  E(RB3LYP) =  -2054.06268907     A.U. after    1 cycles

 Alpha  occ. eigenvalues --  -19.30621 -19.28369 -19.24725 -19.24686 -19.24632
 Alpha  occ. eigenvalues --  -19.23192 -19.20445 -19.19983 -14.51570 -14.50124
 Alpha  occ. eigenvalues --  -14.49166 -14.47704 -14.47380 -14.47292 -14.45229
 Alpha  occ. eigenvalues --  -14.44443 -10.46969 -10.42997 -10.42913 -10.39916
 Alpha  occ. eigenvalues --  -10.37978 -10.37827 -10.35977 -10.35957 -10.34782
 Alpha  occ. eigenvalues --  -10.33929 -10.33819 -10.33696 -10.31513 -10.31265
 Alpha  occ. eigenvalues --  -10.31061 -10.30916 -10.30315 -10.29848 -10.29298
 Alpha  occ. eigenvalues --  -10.28307 -10.28150 -10.28004 -10.27964 -10.27747
 Alpha  occ. eigenvalues --  -10.27465 -10.27162  -1.21352  -1.19828  -1.15469
 Alpha  occ. eigenvalues --   -1.15207  -1.12916  -1.12542  -1.12368  -1.11983
 Alpha  occ. eigenvalues --   -1.11353  -1.07468  -1.04912  -1.03497  -1.03368
 Alpha  occ. eigenvalues --   -1.02981  -1.01885  -1.01075  -0.93331  -0.92459
 Alpha  occ. eigenvalues --   -0.90239  -0.89721  -0.87493  -0.86500  -0.85188
 Alpha  occ. eigenvalues --   -0.82935  -0.82010  -0.81480  -0.81222  -0.80630
 Alpha  occ. eigenvalues --   -0.77988  -0.76419  -0.74631  -0.73873  -0.73489
 Alpha  occ. eigenvalues --   -0.72400  -0.71551  -0.71508  -0.70097  -0.69674
 Alpha  occ. eigenvalues --   -0.68958  -0.68573  -0.68270  -0.66665  -0.65478
 Alpha  occ. eigenvalues --   -0.64853  -0.64626  -0.63524  -0.63361  -0.63101
 Alpha  occ. eigenvalues --   -0.61362  -0.61067  -0.60714  -0.59958  -0.59798
 Alpha  occ. eigenvalues --   -0.59492  -0.59280  -0.58891  -0.58049  -0.57788
 Alpha  occ. eigenvalues --   -0.57242  -0.56583  -0.56433  -0.56118  -0.55852
 Alpha  occ. eigenvalues --   -0.55622  -0.55153  -0.54929  -0.54661  -0.54318
 Alpha  occ. eigenvalues --   -0.53838  -0.52959  -0.52656  -0.52345  -0.52104
 Alpha  occ. eigenvalues --   -0.51559  -0.51438  -0.51078  -0.50607  -0.50119
 Alpha  occ. eigenvalues --   -0.49983  -0.49614  -0.49251  -0.49054  -0.48004
 Alpha  occ. eigenvalues --   -0.47875  -0.47658  -0.47360  -0.47331  -0.46913
 Alpha  occ. eigenvalues --   -0.46657  -0.46386  -0.45901  -0.45675  -0.45260
 Alpha  occ. eigenvalues --   -0.44529  -0.44426  -0.42938  -0.42757  -0.42604
 Alpha  occ. eigenvalues --   -0.42443  -0.42225  -0.41889  -0.40825  -0.39552
 Alpha  occ. eigenvalues --   -0.39268  -0.38291  -0.37845  -0.37141  -0.36822
 Alpha  occ. eigenvalues --   -0.35658  -0.34851  -0.34742  -0.33575  -0.33009
 Alpha  occ. eigenvalues --   -0.31861  -0.29808
 Alpha virt. eigenvalues --   -0.11375  -0.10888  -0.10809  -0.10481  -0.10209
 Alpha virt. eigenvalues --   -0.07715  -0.07528  -0.07102  -0.06946  -0.05152
 Alpha virt. eigenvalues --   -0.04236  -0.03695  -0.03225  -0.02292  -0.01776

 Mulliken charges:
               1
     1  N   -0.841024
     2  C   -0.067721
     3  C    0.578223
     4  O   -0.496105
     5  C   -0.324391
     6  C   -0.373043
     7  C    0.613036
     8  O   -0.499183
     9  O   -0.642620
    10  H    0.487272
    11  H    0.191850
    12  H    0.185610
    13  H    0.203531
    14  H    0.193514
    15  H    0.205242
    16  H    0.364133
    17  H    0.371487
    18  N   -0.571436
    19  C   -0.077165
    20  C    0.643550
    21  O   -0.499954
    22  C   -0.366155
    23  C    0.047275
    24  C   -0.022758
    25  C    0.061924
    26  C    0.294656
    27  C   -0.216698
    28  N   -0.690253
    29  C   -0.164459
    30  C   -0.151628
    31  C   -0.156060
    32  H    0.361674
    33  H    0.127242
    34  H    0.165993
    35  H    0.188498
    36  H    0.201337
    37  H    0.348447
    38  H    0.142253
    39  H    0.145955
    40  H    0.133366
    41  H    0.144517
    42  N   -0.615646
    43  C   -0.056239
    44  C    0.562545
    45  O   -0.483792
    46  C    0.106718
    47  C   -0.493262
    48  O   -0.623411
    49  H    0.411597
    50  H    0.349256
    51  H    0.182584
    52  H    0.171727
    53  H    0.189435
    54  H    0.166410
    55  H    0.172198
    56  N   -0.609495
    57  C   -0.050177
    58  C    0.621125
    59  O   -0.455269
    60  C   -0.314599
    61  C   -0.314237
    62  C   -0.164484
    63  N   -0.643858
    64  C    0.801699
    65  N   -0.763227
    66  N   -0.793365
    67  O   -0.568660
    68  H    0.433313
    69  H    0.342780
    70  H    0.177288
    71  H    0.176008
    72  H    0.147023
    73  H    0.176588
    74  H    0.188176
    75  H    0.177755
    76  H    0.181710
    77  H    0.421132
    78  H    0.377411
    79  H    0.382575
    80  H    0.429248
    81  H    0.363487
 Sum of Mulliken charges =   1.00000

 Dipole moment (field-independent basis, Debye):
    X=             35.3876    Y=            149.7491    Z=             67.0344  Tot=            167.8412
 Quadrupole moment (field-independent basis, Debye-Ang):
   XX=             70.4365   YY=           4457.9541   ZZ=            692.5135
   XY=           1100.7670   XZ=            494.7507   YZ=           2078.4429

 Normal termination of Gaussian 16 at Fri May 27 05:13:00 2022.
