 Gaussian 16, Revision C.01,
 Gaussian 16:  ES64L-G16RevC.01  3-Jul-2019

 ----------------------------------------------------------------------
 # B3LYP/6-31G* empiricaldispersion=gd3 guess=read geom=check nosymm in
 tegral(ultrafinegrid)
 ----------------------------------------------------------------------

 ------------------------------------------------------
 Candidate Structure: Conf:962 Charge calc in gas phase
 ------------------------------------------------------
 Structure from the checkpoint file:  "conf-962.chk"
 Charge =  1 Multiplicity = 1

                          Input orientation:
 ---------------------------------------------------------------------
 Center     Atomic      Atomic             Coordinates (Angstroms)
 Number     Number       Type             X           Y           Z
 ---------------------------------------------------------------------
      1          7           0       11.903730   31.452749   11.620652
      2          6           0       12.496336   32.775014   11.846098
      3          6           0       12.557922   33.260121   13.304268
      4          8           0       13.365124   34.150826   13.544477
      5          6           0       11.763818   33.858224   10.995202
      6          6           0       12.696585   34.542056    9.995346
      7          6           0       13.193713   33.604944    8.921568
      8          8           0       12.627270   32.575515    8.554158
      9          8           0       14.327521   34.022146    8.358280
     10          1           0       14.591562   33.380623    7.670190
     11          1           0       13.559912   32.792178   11.564469
     12          1           0       10.927999   33.386165   10.469852
     13          1           0       11.341728   34.632948   11.642191
     14          1           0       13.554755   34.988751   10.506577
     15          1           0       12.186007   35.365063    9.474531
     16          1           0       12.226637   31.108638   10.716821
     17          1           0       12.250201   30.792438   12.313186
     18          7           0       11.776122   32.735460   14.299514
     19          6           0       10.507464   32.018001   14.271810
     20          6           0        9.478342   32.884580   15.031855
     21          8           0        9.857727   33.633601   15.921490
     22          6           0       10.635634   30.657489   15.028373
     23          6           0       11.455174   29.642257   14.298337
     24          6           0       12.805325   29.418427   14.426109
     25          6           0       10.992809   28.766757   13.248304
     26          6           0       12.122903   28.044025   12.773393
     27          6           0        9.742072   28.536547   12.651138
     28          7           0       13.213993   28.469068   13.506328
     29          6           0       12.033705   27.118921   11.727543
     30          6           0        9.647027   27.618748   11.611427
     31          6           0       10.783656   26.918639   11.151826
     32          1           0       11.896524   33.253736   15.168999
     33          1           0       10.221475   31.836636   13.237439
     34          1           0        9.631907   30.258292   15.213444
     35          1           0       11.064361   30.878048   16.012150
     36          1           0       13.514767   29.873697   15.103102
     37          1           0       14.138199   28.067018   13.462151
     38          1           0        8.855808   29.060536   12.995009
     39          1           0       12.906575   26.572510   11.381295
     40          1           0        8.681255   27.424708   11.151852
     41          1           0       10.678032   26.200029   10.344338
     42          7           0        8.141651   32.739886   14.761776
     43          6           0        7.472043   32.024193   13.695310
     44          6           0        6.341594   32.919794   13.162075
     45          8           0        5.733848   33.623009   13.957248
     46          6           0        6.854803   30.691262   14.210570
     47          6           0        5.747128   30.834524   15.243924
     48          8           0        6.402169   29.998449   13.028199
     49          1           0        6.049320   29.132172   13.289419
     50          1           0        7.540775   33.353508   15.305365
     51          1           0        8.188902   31.758470   12.926283
     52          1           0        7.686269   30.125162   14.647721
     53          1           0        4.882730   31.364912   14.837557
     54          1           0        6.109820   31.383285   16.117967
     55          1           0        5.427460   29.842906   15.584549
     56          7           0        5.886751   32.813214   11.861665
     57          6           0        6.531145   32.585145   10.559403
     58          6           0        5.984725   31.339806    9.838565
     59          8           0        6.126863   31.217691    8.630483
     60          6           0        8.080284   32.556995   10.525239
     61          6           0        8.754682   31.174676   10.665175
     62          6           0        9.139774   30.489902    9.343957
     63          7           0        9.943076   31.359810    8.474564
     64          6           0        9.560829   31.893138    7.312941
     65          7           0        8.282882   31.902560    6.918241
     66          7           0       10.506201   32.421475    6.504383
     67          8           0        5.391228   30.406366   10.556951
     68          1           0        5.503150   30.579601   11.524985
     69          1           0        5.042623   33.373615   11.779145
     70          1           0        6.213855   33.422274    9.929519
     71          1           0        8.445165   33.249156   11.291143
     72          1           0        8.382041   33.008114    9.575318
     73          1           0        9.683689   31.278910   11.234664
     74          1           0        8.121017   30.471721   11.213427
     75          1           0        9.742992   29.606906    9.577980
     76          1           0        8.272172   30.146777    8.780920
     77          1           0       10.880186   31.610581    8.785000
     78          1           0        8.059619   32.085894    5.950465
     79          1           0        7.502341   31.674180    7.545694
     80          1           0       11.467600   32.427866    6.829344
     81          1           0       10.244477   33.116281    5.819710
 ---------------------------------------------------------------------

 SCF Done:  E(RB3LYP) =  -2054.05339546     A.U. after    1 cycles

 Alpha  occ. eigenvalues --  -19.32545 -19.29773 -19.28418 -19.27956 -19.25130
 Alpha  occ. eigenvalues --  -19.22954 -19.20337 -19.18707 -14.50336 -14.50328
 Alpha  occ. eigenvalues --  -14.49694 -14.47664 -14.46779 -14.45398 -14.43609
 Alpha  occ. eigenvalues --  -14.41860 -10.46820 -10.45641 -10.43465 -10.40444
 Alpha  occ. eigenvalues --  -10.37960 -10.36812 -10.36451 -10.35842 -10.34859
 Alpha  occ. eigenvalues --  -10.34160 -10.32697 -10.31988 -10.31713 -10.31185
 Alpha  occ. eigenvalues --  -10.30727 -10.30679 -10.29660 -10.29313 -10.28542
 Alpha  occ. eigenvalues --  -10.27641 -10.27496 -10.27419 -10.27208 -10.27186
 Alpha  occ. eigenvalues --  -10.27037 -10.26993  -1.23891  -1.21387  -1.15583
 Alpha  occ. eigenvalues --   -1.15319  -1.14762  -1.14546  -1.12858  -1.12671
 Alpha  occ. eigenvalues --   -1.10954  -1.06650  -1.04566  -1.03675  -1.03157
 Alpha  occ. eigenvalues --   -1.02095  -1.00386  -0.98699  -0.92641  -0.91749
 Alpha  occ. eigenvalues --   -0.90553  -0.89285  -0.88396  -0.86600  -0.84479
 Alpha  occ. eigenvalues --   -0.82332  -0.82237  -0.81895  -0.80622  -0.79934
 Alpha  occ. eigenvalues --   -0.77386  -0.75903  -0.75137  -0.73884  -0.72979
 Alpha  occ. eigenvalues --   -0.72469  -0.71959  -0.70929  -0.70375  -0.69553
 Alpha  occ. eigenvalues --   -0.68811  -0.68093  -0.67614  -0.66180  -0.65404
 Alpha  occ. eigenvalues --   -0.65009  -0.64775  -0.63743  -0.63452  -0.62516
 Alpha  occ. eigenvalues --   -0.62336  -0.61764  -0.61318  -0.60639  -0.60064
 Alpha  occ. eigenvalues --   -0.59387  -0.58476  -0.58270  -0.58167  -0.57354
 Alpha  occ. eigenvalues --   -0.57275  -0.56995  -0.56524  -0.56249  -0.55980
 Alpha  occ. eigenvalues --   -0.55561  -0.55209  -0.54568  -0.54242  -0.53724
 Alpha  occ. eigenvalues --   -0.53298  -0.53004  -0.52673  -0.52274  -0.51974
 Alpha  occ. eigenvalues --   -0.51850  -0.51409  -0.50727  -0.50252  -0.50028
 Alpha  occ. eigenvalues --   -0.49699  -0.49476  -0.49232  -0.48465  -0.48228
 Alpha  occ. eigenvalues --   -0.47760  -0.47526  -0.47123  -0.46887  -0.46664
 Alpha  occ. eigenvalues --   -0.46292  -0.46219  -0.45950  -0.45719  -0.45257
 Alpha  occ. eigenvalues --   -0.44601  -0.44482  -0.43798  -0.43250  -0.42181
 Alpha  occ. eigenvalues --   -0.42141  -0.41916  -0.41607  -0.41348  -0.40550
 Alpha  occ. eigenvalues --   -0.40134  -0.39243  -0.37344  -0.36365  -0.36016
 Alpha  occ. eigenvalues --   -0.34745  -0.34511  -0.34207  -0.33313  -0.32169
 Alpha  occ. eigenvalues --   -0.31118  -0.29101
 Alpha virt. eigenvalues --   -0.12815  -0.11176  -0.10946  -0.10294  -0.09969
 Alpha virt. eigenvalues --   -0.07085  -0.06424  -0.06158  -0.05891  -0.05079
 Alpha virt. eigenvalues --   -0.04228  -0.03466  -0.03145  -0.02479  -0.01806

 Mulliken charges:
               1
     1  N   -0.792877
     2  C   -0.032924
     3  C    0.561424
     4  O   -0.499343
     5  C   -0.286141
     6  C   -0.367846
     7  C    0.595344
     8  O   -0.526579
     9  O   -0.519040
    10  H    0.425810
    11  H    0.159064
    12  H    0.146028
    13  H    0.184551
    14  H    0.228290
    15  H    0.196194
    16  H    0.311120
    17  H    0.356539
    18  N   -0.594168
    19  C   -0.095962
    20  C    0.611508
    21  O   -0.493200
    22  C   -0.367004
    23  C    0.056131
    24  C   -0.010466
    25  C    0.082917
    26  C    0.297327
    27  C   -0.213414
    28  N   -0.678652
    29  C   -0.165247
    30  C   -0.164063
    31  C   -0.158102
    32  H    0.360298
    33  H    0.186084
    34  H    0.158785
    35  H    0.179386
    36  H    0.177508
    37  H    0.342099
    38  H    0.129841
    39  H    0.142624
    40  H    0.129406
    41  H    0.142499
    42  N   -0.614717
    43  C   -0.070802
    44  C    0.611447
    45  O   -0.486601
    46  C    0.126614
    47  C   -0.477591
    48  O   -0.657557
    49  H    0.426537
    50  H    0.366242
    51  H    0.174447
    52  H    0.160466
    53  H    0.187090
    54  H    0.184153
    55  H    0.159651
    56  N   -0.647720
    57  C   -0.067456
    58  C    0.625582
    59  O   -0.496665
    60  C   -0.311973
    61  C   -0.359887
    62  C   -0.195637
    63  N   -0.620922
    64  C    0.775904
    65  N   -0.793011
    66  N   -0.776873
    67  O   -0.559403
    68  H    0.465631
    69  H    0.355063
    70  H    0.195910
    71  H    0.178604
    72  H    0.158689
    73  H    0.245459
    74  H    0.183374
    75  H    0.199236
    76  H    0.195043
    77  H    0.405420
    78  H    0.368904
    79  H    0.437357
    80  H    0.389326
    81  H    0.364916
 Sum of Mulliken charges =   1.00000

 Dipole moment (field-independent basis, Debye):
    X=             47.8906    Y=            149.3882    Z=             43.3506  Tot=            162.7564
 Quadrupole moment (field-independent basis, Debye-Ang):
   XX=            281.4625   YY=           4414.4748   ZZ=            183.8113
   XY=           1476.9422   XZ=            413.7368   YZ=           1298.2486

 Normal termination of Gaussian 16 at Fri May 27 05:12:59 2022.
