 Gaussian 16, Revision C.01,
 Gaussian 16:  ES64L-G16RevC.01  3-Jul-2019

 ----------------------------------------------------------------------
 # B3LYP/6-31G* empiricaldispersion=gd3 guess=read geom=check nosymm in
 tegral(ultrafinegrid)
 ----------------------------------------------------------------------

 ------------------------------------------------------
 Candidate Structure: Conf:291 Charge calc in gas phase
 ------------------------------------------------------
 Structure from the checkpoint file:  "conf-291.chk"
 Charge =  1 Multiplicity = 1

                          Input orientation:
 ---------------------------------------------------------------------
 Center     Atomic      Atomic             Coordinates (Angstroms)
 Number     Number       Type             X           Y           Z
 ---------------------------------------------------------------------
      1          7           0       12.175194   30.465663   12.131103
      2          6           0       12.333578   30.508111   10.683181
      3          6           0       13.130283   31.718969   10.162362
      4          8           0       14.059464   31.527126    9.389292
      5          6           0       11.059548   30.359207    9.784311
      6          6           0       11.387738   29.586395    8.504752
      7          6           0       11.532632   28.105927    8.770260
      8          8           0       11.041542   27.507086    9.727575
      9          8           0       12.231040   27.478768    7.826520
     10          1           0       12.288493   26.530197    8.053674
     11          1           0       12.991038   29.667289   10.442214
     12          1           0       10.282628   29.820348   10.333493
     13          1           0       10.640546   31.335246    9.515635
     14          1           0       12.307782   29.959125    8.042266
     15          1           0       10.594258   29.691452    7.751875
     16          1           0       11.713996   31.262269   12.553428
     17          1           0       11.705219   29.613987   12.423074
     18          7           0       12.755497   32.997489   10.505481
     19          6           0       11.520470   33.477961   11.097303
     20          6           0       10.735548   34.288196   10.046566
     21          8           0       11.310739   34.812227    9.106696
     22          6           0       11.804703   34.356298   12.354290
     23          6           0       12.240850   33.518338   13.513639
     24          6           0       13.494284   33.002994   13.744719
     25          6           0       11.370917   32.935294   14.505501
     26          6           0       12.167632   32.061903   15.301560
     27          6           0       10.004925   33.072029   14.811595
     28          7           0       13.455899   32.142734   14.820408
     29          6           0       11.629423   31.316229   16.356710
     30          6           0        9.466659   32.334116   15.859563
     31          6           0       10.270964   31.459027   16.620847
     32          1           0       13.225929   33.694467    9.932921
     33          1           0       10.930565   32.619150   11.410972
     34          1           0       10.898595   34.916988   12.613075
     35          1           0       12.559141   35.099352   12.073968
     36          1           0       14.414155   33.168454   13.202667
     37          1           0       14.242724   31.613122   15.163304
     38          1           0        9.374738   33.753739   14.248515
     39          1           0       12.252417   30.658284   16.956134
     40          1           0        8.412899   32.438661   16.104304
     41          1           0        9.825683   30.899919   17.438597
     42          7           0        9.382972   34.461906   10.245225
     43          6           0        8.510538   33.741283   11.152802
     44          6           0        7.490368   32.938103   10.329070
     45          8           0        7.088473   33.418454    9.277126
     46          6           0        7.768230   34.725291   12.096597
     47          6           0        6.800122   35.682480   11.416579
     48          8           0        7.095074   33.894027   13.074171
     49          1           0        6.686641   34.472957   13.738681
     50          1           0        8.914236   34.896013    9.455257
     51          1           0        9.111268   33.106058   11.790870
     52          1           0        8.552677   35.296412   12.610221
     53          1           0        6.350601   36.349053   12.161402
     54          1           0        6.004098   35.145366   10.895145
     55          1           0        7.327481   36.310320   10.692176
     56          7           0        6.929600   31.766208   10.788115
     57          6           0        7.249547   30.713471   11.761309
     58          6           0        6.095928   30.527845   12.757173
     59          8           0        5.687749   29.410225   13.043485
     60          6           0        8.569090   30.857863   12.532088
     61          6           0        8.886620   29.777638   13.583764
     62          6           0        8.681367   28.285419   13.244880
     63          7           0        8.870875   27.897416   11.834841
     64          6           0        7.960702   27.231722   11.105247
     65          7           0        6.661426   27.258342   11.426252
     66          7           0        8.372000   26.527459   10.036411
     67          8           0        5.602172   31.614616   13.320118
     68          1           0        6.070599   32.430809   13.004882
     69          1           0        6.212559   31.478441   10.127472
     70          1           0        7.296317   29.787335   11.188029
     71          1           0        8.574677   31.799470   13.081127
     72          1           0        9.375841   30.896191   11.798313
     73          1           0        9.922677   29.954333   13.888704
     74          1           0        8.298764   29.969561   14.487499
     75          1           0        9.371767   27.685358   13.847857
     76          1           0        7.676645   27.983229   13.532109
     77          1           0        9.810177   27.910601   11.442622
     78          1           0        6.017244   26.628221   10.969980
     79          1           0        6.269312   27.960907   12.070462
     80          1           0        9.360990   26.528968    9.795323
     81          1           0        7.712897   26.274807    9.313945
 ---------------------------------------------------------------------

 SCF Done:  E(RB3LYP) =  -2054.04306639     A.U. after    3 cycles

 Alpha  occ. eigenvalues --  -19.32325 -19.30146 -19.29195 -19.27741 -19.25938
 Alpha  occ. eigenvalues --  -19.22978 -19.20935 -19.19272 -14.51598 -14.51183
 Alpha  occ. eigenvalues --  -14.50717 -14.48353 -14.46390 -14.45793 -14.43980
 Alpha  occ. eigenvalues --  -14.41497 -10.47899 -10.45493 -10.43919 -10.40735
 Alpha  occ. eigenvalues --  -10.38377 -10.37082 -10.36910 -10.36509 -10.35695
 Alpha  occ. eigenvalues --  -10.35212 -10.33443 -10.32048 -10.31708 -10.31149
 Alpha  occ. eigenvalues --  -10.31146 -10.30604 -10.30299 -10.30114 -10.28881
 Alpha  occ. eigenvalues --  -10.27968 -10.27632 -10.27521 -10.27268 -10.27115
 Alpha  occ. eigenvalues --  -10.26982 -10.26687  -1.23688  -1.21765  -1.16279
 Alpha  occ. eigenvalues --   -1.15959  -1.15161  -1.14423  -1.13401  -1.13138
 Alpha  occ. eigenvalues --   -1.11334  -1.06423  -1.05537  -1.04230  -1.04103
 Alpha  occ. eigenvalues --   -1.02584  -1.00926  -0.98409  -0.92833  -0.92489
 Alpha  occ. eigenvalues --   -0.90768  -0.89470  -0.88852  -0.87356  -0.84676
 Alpha  occ. eigenvalues --   -0.82935  -0.82220  -0.81900  -0.81014  -0.80467
 Alpha  occ. eigenvalues --   -0.78367  -0.76072  -0.75436  -0.74614  -0.73629
 Alpha  occ. eigenvalues --   -0.73016  -0.72744  -0.70848  -0.70626  -0.70069
 Alpha  occ. eigenvalues --   -0.69224  -0.68785  -0.67729  -0.67321  -0.66008
 Alpha  occ. eigenvalues --   -0.65515  -0.64998  -0.64687  -0.63994  -0.63292
 Alpha  occ. eigenvalues --   -0.62429  -0.62230  -0.61457  -0.60647  -0.60131
 Alpha  occ. eigenvalues --   -0.59685  -0.59313  -0.58871  -0.58473  -0.58343
 Alpha  occ. eigenvalues --   -0.57630  -0.57373  -0.56823  -0.56529  -0.56094
 Alpha  occ. eigenvalues --   -0.55628  -0.55465  -0.55131  -0.54789  -0.54508
 Alpha  occ. eigenvalues --   -0.54106  -0.53287  -0.52996  -0.52440  -0.51962
 Alpha  occ. eigenvalues --   -0.51631  -0.51434  -0.51173  -0.50727  -0.50447
 Alpha  occ. eigenvalues --   -0.49897  -0.49745  -0.49456  -0.48849  -0.48780
 Alpha  occ. eigenvalues --   -0.48515  -0.48173  -0.47660  -0.47349  -0.46861
 Alpha  occ. eigenvalues --   -0.46725  -0.46586  -0.46248  -0.45610  -0.45112
 Alpha  occ. eigenvalues --   -0.45022  -0.44768  -0.44454  -0.43933  -0.42955
 Alpha  occ. eigenvalues --   -0.42364  -0.42169  -0.41829  -0.41371  -0.41103
 Alpha  occ. eigenvalues --   -0.40633  -0.40212  -0.37378  -0.36662  -0.36349
 Alpha  occ. eigenvalues --   -0.35209  -0.35040  -0.34219  -0.33330  -0.31784
 Alpha  occ. eigenvalues --   -0.30892  -0.28796
 Alpha virt. eigenvalues --   -0.12653  -0.12209  -0.11599  -0.09998  -0.09970
 Alpha virt. eigenvalues --   -0.07944  -0.07387  -0.06529  -0.06389  -0.05603
 Alpha virt. eigenvalues --   -0.04839  -0.04018  -0.03233  -0.02578  -0.02047

 Mulliken charges:
               1
     1  N   -0.759770
     2  C   -0.057862
     3  C    0.592760
     4  O   -0.490112
     5  C   -0.306945
     6  C   -0.371348
     7  C    0.596477
     8  O   -0.527898
     9  O   -0.515319
    10  H    0.427449
    11  H    0.175868
    12  H    0.130091
    13  H    0.165348
    14  H    0.237368
    15  H    0.198554
    16  H    0.349745
    17  H    0.296122
    18  N   -0.577977
    19  C   -0.083824
    20  C    0.606196
    21  O   -0.481376
    22  C   -0.357098
    23  C    0.036900
    24  C    0.041312
    25  C    0.048251
    26  C    0.322076
    27  C   -0.229879
    28  N   -0.672444
    29  C   -0.164232
    30  C   -0.155894
    31  C   -0.159724
    32  H    0.355962
    33  H    0.129584
    34  H    0.155595
    35  H    0.181337
    36  H    0.179751
    37  H    0.343327
    38  H    0.127973
    39  H    0.144193
    40  H    0.128424
    41  H    0.142221
    42  N   -0.603423
    43  C   -0.085650
    44  C    0.618975
    45  O   -0.492788
    46  C    0.128547
    47  C   -0.479045
    48  O   -0.661512
    49  H    0.429526
    50  H    0.362891
    51  H    0.165989
    52  H    0.166478
    53  H    0.162612
    54  H    0.188983
    55  H    0.182882
    56  N   -0.643254
    57  C   -0.056904
    58  C    0.638795
    59  O   -0.493242
    60  C   -0.344608
    61  C   -0.305279
    62  C   -0.178410
    63  N   -0.622076
    64  C    0.774523
    65  N   -0.788703
    66  N   -0.778720
    67  O   -0.569311
    68  H    0.467510
    69  H    0.347866
    70  H    0.159155
    71  H    0.206128
    72  H    0.164824
    73  H    0.180456
    74  H    0.188827
    75  H    0.194193
    76  H    0.203938
    77  H    0.393875
    78  H    0.370753
    79  H    0.432281
    80  H    0.404610
    81  H    0.367124
 Sum of Mulliken charges =   1.00000

 Dipole moment (field-independent basis, Debye):
    X=             41.1550    Y=            139.6070    Z=             57.3798  Tot=            156.4490
 Quadrupole moment (field-independent basis, Debye-Ang):
   XX=            123.4506   YY=           3873.2183   ZZ=            458.2835
   XY=           1184.8067   XZ=            515.0939   YZ=           1709.3239

 Normal termination of Gaussian 16 at Fri May 27 05:13:56 2022.
