 Gaussian 16, Revision C.01,
 Gaussian 16:  ES64L-G16RevC.01  3-Jul-2019

 ----------------------------------------------------------------------
 # B3LYP/6-31G* empiricaldispersion=gd3 guess=read geom=check nosymm in
 tegral(ultrafinegrid)
 ----------------------------------------------------------------------

 ------------------------------------------------------
 Candidate Structure: Conf:549 Charge calc in gas phase
 ------------------------------------------------------
 Structure from the checkpoint file:  "conf-549.chk"
 Charge =  1 Multiplicity = 1

                          Input orientation:
 ---------------------------------------------------------------------
 Center     Atomic      Atomic             Coordinates (Angstroms)
 Number     Number       Type             X           Y           Z
 ---------------------------------------------------------------------
      1          7           0        9.382564   33.878586   10.980833
      2          6           0        9.421333   33.736456    9.498174
      3          6           0        8.095218   33.314152    8.827631
      4          8           0        7.518344   34.130720    8.118431
      5          6           0       10.607208   32.867780    9.044154
      6          6           0       11.993710   33.529463    9.200392
      7          6           0       12.607818   33.542027   10.589988
      8          8           0       13.785095   33.244032   10.765266
      9          8           0       11.849622   33.906991   11.621228
     10          1           0       10.792834   33.993238   11.389229
     11          1           0        9.572524   34.747236    9.110580
     12          1           0       10.600907   31.884862    9.524825
     13          1           0       10.467656   32.663882    7.977726
     14          1           0       11.945662   34.573981    8.860202
     15          1           0       12.717782   33.022799    8.559005
     16          1           0        8.769584   34.651953   11.241917
     17          1           0        8.961085   33.060439   11.421650
     18          7           0        7.647468   32.026298    8.923025
     19          6           0        7.824499   30.998677    9.931450
     20          6           0        7.758050   29.643176    9.205023
     21          8           0        7.119768   29.548077    8.166838
     22          6           0        6.654157   31.019176   10.968264
     23          6           0        6.546910   32.296517   11.743962
     24          6           0        6.167238   33.531505   11.268237
     25          6           0        6.853957   32.473975   13.144879
     26          6           0        6.667395   33.851680   13.446690
     27          6           0        7.209053   31.593261   14.182752
     28          7           0        6.283354   34.477217   12.273257
     29          6           0        6.847601   34.367752   14.734314
     30          6           0        7.367567   32.098520   15.467211
     31          6           0        7.197690   33.472531   15.739309
     32          1           0        6.892334   31.816367    8.274733
     33          1           0        8.781597   31.130065   10.438138
     34          1           0        6.779194   30.174383   11.655824
     35          1           0        5.735529   30.821711   10.403251
     36          1           0        5.850366   33.826669   10.277738
     37          1           0        5.905178   35.412094   12.218062
     38          1           0        7.347163   30.533236   13.989043
     39          1           0        6.695400   35.422258   14.946686
     40          1           0        7.619937   31.423989   16.280880
     41          1           0        7.324216   33.835649   16.754956
     42          7           0        8.291269   28.540922    9.814245
     43          6           0        9.257358   28.441717   10.893870
     44          6           0       10.569319   29.163870   10.566177
     45          8           0       10.860422   29.465593    9.418051
     46          6           0        9.545291   26.910984   11.121805
     47          6           0       10.305624   26.249620    9.971609
     48          8           0       10.196224   26.696918   12.358755
     49          1           0       11.153753   26.797522   12.232157
     50          1           0        8.190799   27.724581    9.221922
     51          1           0        8.834776   28.815676   11.831005
     52          1           0        8.557526   26.448191   11.229989
     53          1           0        9.806930   26.367544    9.004839
     54          1           0       10.402461   25.180445   10.178359
     55          1           0       11.309666   26.678586    9.870364
     56          7           0       11.511980   29.320882   11.580806
     57          6           0       11.331137   29.848169   12.952366
     58          6           0       10.818081   28.808994   13.956660
     59          8           0       11.549898   28.066272   14.564829
     60          6           0       10.560818   31.173793   12.984338
     61          6           0       10.582538   31.903101   14.337758
     62          6           0       11.963221   32.087638   14.976446
     63          7           0       12.892989   32.760423   14.064495
     64          6           0       14.214987   32.829960   14.246957
     65          7           0       14.758008   32.413411   15.409330
     66          7           0       14.990788   33.285910   13.263408
     67          8           0        9.478420   28.863630   14.136828
     68          1           0        9.240017   28.093762   14.688810
     69          1           0       12.357353   29.696259   11.157965
     70          1           0       12.356904   30.023446   13.284051
     71          1           0        9.514245   30.997329   12.717766
     72          1           0       10.992680   31.809159   12.209178
     73          1           0       10.098506   32.878718   14.216861
     74          1           0        9.965624   31.358899   15.056710
     75          1           0       11.843494   32.672816   15.898891
     76          1           0       12.387775   31.115131   15.255850
     77          1           0       12.509987   33.247673   13.247181
     78          1           0       15.759551   32.359900   15.522183
     79          1           0       14.196717   32.309699   16.241021
     80          1           0       14.607249   33.360660   12.304080
     81          1           0       15.968873   33.479915   13.420194
 ---------------------------------------------------------------------

 SCF Done:  E(RB3LYP) =  -2054.06269492     A.U. after    3 cycles

 Alpha  occ. eigenvalues --  -19.30621 -19.28366 -19.24726 -19.24689 -19.24632
 Alpha  occ. eigenvalues --  -19.23189 -19.20445 -19.19979 -14.51569 -14.50126
 Alpha  occ. eigenvalues --  -14.49164 -14.47704 -14.47381 -14.47292 -14.45231
 Alpha  occ. eigenvalues --  -14.44442 -10.46968 -10.42997 -10.42912 -10.39915
 Alpha  occ. eigenvalues --  -10.37979 -10.37826 -10.35977 -10.35955 -10.34784
 Alpha  occ. eigenvalues --  -10.33930 -10.33817 -10.33696 -10.31513 -10.31264
 Alpha  occ. eigenvalues --  -10.31063 -10.30911 -10.30312 -10.29844 -10.29299
 Alpha  occ. eigenvalues --  -10.28307 -10.28149 -10.28003 -10.27964 -10.27747
 Alpha  occ. eigenvalues --  -10.27464 -10.27163  -1.21352  -1.19827  -1.15468
 Alpha  occ. eigenvalues --   -1.15206  -1.12917  -1.12543  -1.12369  -1.11981
 Alpha  occ. eigenvalues --   -1.11353  -1.07467  -1.04912  -1.03497  -1.03368
 Alpha  occ. eigenvalues --   -1.02981  -1.01887  -1.01073  -0.93331  -0.92457
 Alpha  occ. eigenvalues --   -0.90238  -0.89719  -0.87495  -0.86500  -0.85187
 Alpha  occ. eigenvalues --   -0.82935  -0.82010  -0.81479  -0.81221  -0.80630
 Alpha  occ. eigenvalues --   -0.77988  -0.76420  -0.74632  -0.73869  -0.73488
 Alpha  occ. eigenvalues --   -0.72400  -0.71552  -0.71508  -0.70089  -0.69675
 Alpha  occ. eigenvalues --   -0.68957  -0.68573  -0.68270  -0.66666  -0.65477
 Alpha  occ. eigenvalues --   -0.64853  -0.64624  -0.63526  -0.63360  -0.63100
 Alpha  occ. eigenvalues --   -0.61363  -0.61067  -0.60714  -0.59959  -0.59798
 Alpha  occ. eigenvalues --   -0.59492  -0.59281  -0.58890  -0.58049  -0.57787
 Alpha  occ. eigenvalues --   -0.57241  -0.56583  -0.56434  -0.56116  -0.55854
 Alpha  occ. eigenvalues --   -0.55621  -0.55153  -0.54928  -0.54660  -0.54316
 Alpha  occ. eigenvalues --   -0.53839  -0.52961  -0.52657  -0.52347  -0.52103
 Alpha  occ. eigenvalues --   -0.51557  -0.51439  -0.51076  -0.50609  -0.50117
 Alpha  occ. eigenvalues --   -0.49982  -0.49613  -0.49253  -0.49054  -0.48002
 Alpha  occ. eigenvalues --   -0.47874  -0.47657  -0.47359  -0.47328  -0.46912
 Alpha  occ. eigenvalues --   -0.46657  -0.46388  -0.45901  -0.45676  -0.45259
 Alpha  occ. eigenvalues --   -0.44529  -0.44422  -0.42939  -0.42757  -0.42604
 Alpha  occ. eigenvalues --   -0.42442  -0.42223  -0.41888  -0.40824  -0.39551
 Alpha  occ. eigenvalues --   -0.39269  -0.38292  -0.37846  -0.37140  -0.36821
 Alpha  occ. eigenvalues --   -0.35658  -0.34850  -0.34742  -0.33572  -0.33009
 Alpha  occ. eigenvalues --   -0.31860  -0.29808
 Alpha virt. eigenvalues --   -0.11374  -0.10888  -0.10810  -0.10480  -0.10207
 Alpha virt. eigenvalues --   -0.07710  -0.07525  -0.07100  -0.06946  -0.05152
 Alpha virt. eigenvalues --   -0.04235  -0.03696  -0.03223  -0.02292  -0.01775

 Mulliken charges:
               1
     1  N   -0.841127
     2  C   -0.067638
     3  C    0.578191
     4  O   -0.496121
     5  C   -0.324548
     6  C   -0.372990
     7  C    0.613046
     8  O   -0.499228
     9  O   -0.642543
    10  H    0.487235
    11  H    0.191822
    12  H    0.185876
    13  H    0.203472
    14  H    0.193424
    15  H    0.205234
    16  H    0.364135
    17  H    0.371535
    18  N   -0.571481
    19  C   -0.077223
    20  C    0.643583
    21  O   -0.499987
    22  C   -0.366142
    23  C    0.047235
    24  C   -0.022807
    25  C    0.062010
    26  C    0.294707
    27  C   -0.216754
    28  N   -0.690301
    29  C   -0.164486
    30  C   -0.151618
    31  C   -0.156067
    32  H    0.361731
    33  H    0.127325
    34  H    0.165961
    35  H    0.188527
    36  H    0.201377
    37  H    0.348440
    38  H    0.142293
    39  H    0.145959
    40  H    0.133394
    41  H    0.144520
    42  N   -0.615698
    43  C   -0.056145
    44  C    0.562533
    45  O   -0.483898
    46  C    0.106708
    47  C   -0.493258
    48  O   -0.623414
    49  H    0.411587
    50  H    0.349250
    51  H    0.182655
    52  H    0.171705
    53  H    0.172275
    54  H    0.189412
    55  H    0.166366
    56  N   -0.609435
    57  C   -0.050130
    58  C    0.621148
    59  O   -0.455278
    60  C   -0.314727
    61  C   -0.314129
    62  C   -0.164570
    63  N   -0.643841
    64  C    0.801627
    65  N   -0.763170
    66  N   -0.793446
    67  O   -0.568657
    68  H    0.433333
    69  H    0.342780
    70  H    0.177250
    71  H    0.176096
    72  H    0.147008
    73  H    0.176679
    74  H    0.188045
    75  H    0.177736
    76  H    0.181796
    77  H    0.421081
    78  H    0.377411
    79  H    0.382560
    80  H    0.429303
    81  H    0.363483
 Sum of Mulliken charges =   1.00000

 Dipole moment (field-independent basis, Debye):
    X=             57.0286    Y=            155.6251    Z=             67.7168  Tot=            179.0447
 Quadrupole moment (field-independent basis, Debye-Ang):
   XX=            487.0357   YY=           4833.5527   ZZ=            709.4179
   XY=           1848.4145   XZ=            806.2856   YZ=           2201.1942

 Normal termination of Gaussian 16 at Fri May 27 05:13:50 2022.
