 Gaussian 16, Revision C.01,
 Gaussian 16:  ES64L-G16RevC.01  3-Jul-2019

 ----------------------------------------------------------------------
 # B3LYP/6-31G* empiricaldispersion=gd3 guess=read geom=check nosymm in
 tegral(ultrafinegrid)
 ----------------------------------------------------------------------

 ------------------------------------------------------
 Candidate Structure: Conf:472 Charge calc in gas phase
 ------------------------------------------------------
 Structure from the checkpoint file:  "conf-472.chk"
 Charge =  1 Multiplicity = 1

                          Input orientation:
 ---------------------------------------------------------------------
 Center     Atomic      Atomic             Coordinates (Angstroms)
 Number     Number       Type             X           Y           Z
 ---------------------------------------------------------------------
      1          7           0       10.780448   32.631511   10.149423
      2          6           0       12.160903   33.118193   10.446593
      3          6           0       13.282897   32.062274   10.354029
      4          8           0       14.285187   32.318543    9.707054
      5          6           0       12.259125   33.795241   11.834877
      6          6           0       11.767886   35.259250   11.910413
      7          6           0       10.411152   35.412984   11.281203
      8          8           0        9.344374   35.113772   11.803788
      9          8           0       10.488114   35.865026   10.022905
     10          1           0        9.585873   35.796389    9.642462
     11          1           0       12.433383   33.844979    9.676779
     12          1           0       11.715789   33.205636   12.576229
     13          1           0       13.305111   33.789652   12.156453
     14          1           0       12.474992   35.916098   11.397970
     15          1           0       11.703049   35.548283   12.963306
     16          1           0       10.830601   31.700687    9.733261
     17          1           0       10.279115   32.522258   11.025441
     18          7           0       13.161854   30.851071   11.005942
     19          6           0       12.231841   30.448329   12.042785
     20          6           0       12.792191   30.746216   13.447205
     21          8           0       13.975887   30.971891   13.618827
     22          6           0       11.911499   28.938119   11.890864
     23          6           0       11.057650   28.639248   10.694008
     24          6           0       11.385702   28.790546    9.365915
     25          6           0        9.702686   28.145873   10.726976
     26          6           0        9.265339   28.021245    9.377619
     27          6           0        8.817995   27.791676   11.761832
     28          7           0       10.307069   28.438464    8.573934
     29          6           0        7.984331   27.563747    9.045978
     30          6           0        7.544966   27.339520   11.437624
     31          6           0        7.132700   27.226025   10.092224
     32          1           0       14.056974   30.371162   11.042413
     33          1           0       11.310601   31.006278   11.901666
     34          1           0       11.410536   28.582081   12.797127
     35          1           0       12.867400   28.399987   11.854201
     36          1           0       12.314244   29.116029    8.919456
     37          1           0       10.338022   28.346766    7.569508
     38          1           0        9.126218   27.863497   12.802357
     39          1           0        7.670976   27.464094    8.010373
     40          1           0        6.857046   27.054402   12.228407
     41          1           0        6.135833   26.857257    9.869692
     42          7           0       11.906194   30.671946   14.511881
     43          6           0       10.463265   30.849019   14.413877
     44          6           0       10.137254   32.358871   14.398813
     45          8           0       10.883535   33.110370   15.018691
     46          6           0        9.767777   30.136456   15.596206
     47          6           0       10.036799   30.732403   16.972238
     48          8           0        8.354480   30.171139   15.280078
     49          1           0        7.878111   29.655813   15.952009
     50          1           0       12.316959   31.091855   15.340693
     51          1           0       10.110533   30.347436   13.518475
     52          1           0       10.105099   29.092399   15.564541
     53          1           0        9.487005   30.169533   17.735200
     54          1           0        9.734750   31.781703   17.019050
     55          1           0       11.098557   30.666879   17.229545
     56          7           0        9.062463   32.892839   13.734350
     57          6           0        8.045874   32.471939   12.765006
     58          6           0        6.639453   32.552619   13.377635
     59          8           0        5.726668   33.129752   12.797379
     60          6           0        8.251958   31.118597   12.070455
     61          6           0        7.334264   30.806320   10.866413
     62          6           0        6.738405   31.936536   10.010882
     63          7           0        7.615040   33.081489    9.665257
     64          6           0        7.212573   34.355446    9.729374
     65          7           0        6.245098   34.742184   10.549396
     66          7           0        7.834990   35.272507    8.917714
     67          8           0        6.438871   31.950511   14.533191
     68          1           0        7.262419   31.500919   14.857373
     69          1           0        9.122335   33.907999   13.774379
     70          1           0        8.080192   33.249197   12.007041
     71          1           0        8.141614   30.301919   12.786085
     72          1           0        9.285276   31.073702   11.723790
     73          1           0        7.887578   30.119329   10.222811
     74          1           0        6.467601   30.231180   11.208598
     75          1           0        6.398497   31.495994    9.066448
     76          1           0        5.860700   32.342838   10.506274
     77          1           0        8.571549   32.919113    9.339891
     78          1           0        5.879512   35.683472   10.505245
     79          1           0        6.005661   34.179241   11.387995
     80          1           0        8.106353   34.940062    7.998289
     81          1           0        7.454128   36.212652    8.909038
 ---------------------------------------------------------------------

 SCF Done:  E(RB3LYP) =  -2054.04117164     A.U. after    1 cycles

 Alpha  occ. eigenvalues --  -19.29814 -19.29435 -19.29190 -19.25737 -19.24672
 Alpha  occ. eigenvalues --  -19.22209 -19.21095 -19.19560 -14.53674 -14.52286
 Alpha  occ. eigenvalues --  -14.51800 -14.47488 -14.47356 -14.45451 -14.44486
 Alpha  occ. eigenvalues --  -14.44002 -10.49066 -10.43650 -10.42606 -10.39999
 Alpha  occ. eigenvalues --  -10.38153 -10.37162 -10.36561 -10.35961 -10.35813
 Alpha  occ. eigenvalues --  -10.34934 -10.33562 -10.32150 -10.31626 -10.31397
 Alpha  occ. eigenvalues --  -10.31271 -10.30944 -10.29584 -10.29484 -10.29340
 Alpha  occ. eigenvalues --  -10.28313 -10.28174 -10.28132 -10.28000 -10.27903
 Alpha  occ. eigenvalues --  -10.27696 -10.27448  -1.21504  -1.20962  -1.17325
 Alpha  occ. eigenvalues --   -1.15828  -1.14607  -1.13149  -1.13069  -1.11701
 Alpha  occ. eigenvalues --   -1.11661  -1.07323  -1.06584  -1.05503  -1.03480
 Alpha  occ. eigenvalues --   -1.02345  -1.01524  -0.99656  -0.93341  -0.92474
 Alpha  occ. eigenvalues --   -0.90080  -0.89318  -0.88804  -0.87318  -0.85300
 Alpha  occ. eigenvalues --   -0.82901  -0.82719  -0.81453  -0.81171  -0.80909
 Alpha  occ. eigenvalues --   -0.78783  -0.76319  -0.74967  -0.74390  -0.73853
 Alpha  occ. eigenvalues --   -0.73074  -0.72647  -0.71527  -0.70657  -0.69710
 Alpha  occ. eigenvalues --   -0.69122  -0.68713  -0.68075  -0.67149  -0.66180
 Alpha  occ. eigenvalues --   -0.65789  -0.65423  -0.65189  -0.63819  -0.63195
 Alpha  occ. eigenvalues --   -0.63031  -0.61763  -0.60987  -0.60419  -0.59878
 Alpha  occ. eigenvalues --   -0.58835  -0.58778  -0.58410  -0.58170  -0.57658
 Alpha  occ. eigenvalues --   -0.57477  -0.56970  -0.56606  -0.56432  -0.56050
 Alpha  occ. eigenvalues --   -0.55910  -0.55614  -0.55267  -0.54477  -0.54076
 Alpha  occ. eigenvalues --   -0.53777  -0.53392  -0.52602  -0.52490  -0.52021
 Alpha  occ. eigenvalues --   -0.51448  -0.51079  -0.50992  -0.50875  -0.50375
 Alpha  occ. eigenvalues --   -0.50137  -0.49648  -0.49421  -0.48861  -0.48699
 Alpha  occ. eigenvalues --   -0.48373  -0.48078  -0.47672  -0.47244  -0.47085
 Alpha  occ. eigenvalues --   -0.46803  -0.46635  -0.45921  -0.45460  -0.45134
 Alpha  occ. eigenvalues --   -0.44873  -0.44645  -0.44386  -0.43704  -0.42790
 Alpha  occ. eigenvalues --   -0.42672  -0.42424  -0.41949  -0.41222  -0.40752
 Alpha  occ. eigenvalues --   -0.40161  -0.38472  -0.37212  -0.36724  -0.36498
 Alpha  occ. eigenvalues --   -0.36124  -0.35481  -0.35035  -0.33582  -0.32510
 Alpha  occ. eigenvalues --   -0.31752  -0.29688
 Alpha virt. eigenvalues --   -0.14853  -0.11524  -0.10738  -0.10052  -0.09578
 Alpha virt. eigenvalues --   -0.09024  -0.08200  -0.07216  -0.06845  -0.05529
 Alpha virt. eigenvalues --   -0.04398  -0.04054  -0.03734  -0.02561  -0.01987

 Mulliken charges:
               1
     1  N   -0.809049
     2  C   -0.033170
     3  C    0.549799
     4  O   -0.477370
     5  C   -0.334879
     6  C   -0.338177
     7  C    0.582238
     8  O   -0.521328
     9  O   -0.563419
    10  H    0.441252
    11  H    0.192291
    12  H    0.165325
    13  H    0.212511
    14  H    0.193999
    15  H    0.200088
    16  H    0.329890
    17  H    0.328044
    18  N   -0.580302
    19  C   -0.066844
    20  C    0.605182
    21  O   -0.473264
    22  C   -0.374269
    23  C    0.070153
    24  C   -0.009184
    25  C    0.065673
    26  C    0.306518
    27  C   -0.218113
    28  N   -0.689645
    29  C   -0.174121
    30  C   -0.147308
    31  C   -0.152175
    32  H    0.349707
    33  H    0.113601
    34  H    0.166533
    35  H    0.182984
    36  H    0.183069
    37  H    0.342430
    38  H    0.128289
    39  H    0.142507
    40  H    0.138636
    41  H    0.147015
    42  N   -0.590439
    43  C   -0.098496
    44  C    0.611725
    45  O   -0.509055
    46  C    0.122519
    47  C   -0.481926
    48  O   -0.659733
    49  H    0.428972
    50  H    0.357337
    51  H    0.171116
    52  H    0.167636
    53  H    0.163750
    54  H    0.192131
    55  H    0.179493
    56  N   -0.634366
    57  C   -0.086845
    58  C    0.643896
    59  O   -0.497505
    60  C   -0.334352
    61  C   -0.310206
    62  C   -0.172571
    63  N   -0.608533
    64  C    0.772573
    65  N   -0.756229
    66  N   -0.797004
    67  O   -0.565633
    68  H    0.462672
    69  H    0.365406
    70  H    0.201243
    71  H    0.198167
    72  H    0.151572
    73  H    0.193099
    74  H    0.187986
    75  H    0.191992
    76  H    0.204995
    77  H    0.381164
    78  H    0.371444
    79  H    0.442577
    80  H    0.385658
    81  H    0.378650
 Sum of Mulliken charges =   1.00000

 Dipole moment (field-independent basis, Debye):
    X=             35.8737    Y=            154.6978    Z=             50.6441  Tot=            166.6828
 Quadrupole moment (field-independent basis, Debye-Ang):
   XX=             -3.0491   YY=           4793.9490   ZZ=            345.5754
   XY=           1138.4854   XZ=            386.3004   YZ=           1606.2467

 Normal termination of Gaussian 16 at Fri May 27 05:12:57 2022.
