 Gaussian 16, Revision C.01,
 Gaussian 16:  ES64L-G16RevC.01  3-Jul-2019

 ----------------------------------------------------------------------
 # B3LYP/6-31G* empiricaldispersion=gd3 guess=read geom=check nosymm in
 tegral(ultrafinegrid)
 ----------------------------------------------------------------------

 ------------------------------------------------------
 Candidate Structure: Conf:102 Charge calc in gas phase
 ------------------------------------------------------
 Structure from the checkpoint file:  "conf-102.chk"
 Charge =  1 Multiplicity = 1

                          Input orientation:
 ---------------------------------------------------------------------
 Center     Atomic      Atomic             Coordinates (Angstroms)
 Number     Number       Type             X           Y           Z
 ---------------------------------------------------------------------
      1          7           0       10.747039   30.419077    9.435204
      2          6           0       10.798975   31.535454    8.450826
      3          6           0       12.030606   32.472842    8.491809
      4          8           0       12.764333   32.514848    7.512848
      5          6           0        9.494163   32.354236    8.465793
      6          6           0        8.262640   31.602990    7.914330
      7          6           0        7.521001   30.702486    8.888095
      8          8           0        6.296762   30.656780    8.903307
      9          8           0        8.227483   29.957071    9.732381
     10          1           0        9.281962   30.050997    9.601387
     11          1           0       10.887857   31.066735    7.467812
     12          1           0        9.288833   32.739966    9.472401
     13          1           0        9.654981   33.234483    7.835513
     14          1           0        8.558172   30.986095    7.053742
     15          1           0        7.520852   32.313085    7.542284
     16          1           0       11.377598   29.670011    9.149797
     17          1           0       11.098106   30.700262   10.350020
     18          7           0       12.176359   33.358067    9.527615
     19          6           0       11.809995   33.233786   10.925184
     20          6           0       11.468733   34.644253   11.448092
     21          8           0       11.977241   35.625804   10.927547
     22          6           0       12.987284   32.626677   11.753184
     23          6           0       13.287745   31.211438   11.370969
     24          6           0       13.970584   30.773143   10.259970
     25          6           0       12.794321   30.031771   12.044060
     26          6           0       13.205343   28.906960   11.274668
     27          6           0       12.065830   29.819373   13.229956
     28          7           0       13.898563   29.394112   10.180651
     29          6           0       12.901436   27.593400   11.647432
     30          6           0       11.770544   28.513741   13.605182
     31          6           0       12.176921   27.413352   12.820438
     32          1           0       12.878756   34.071942    9.353343
     33          1           0       10.934219   32.586954   11.005342
     34          1           0       12.745217   32.673859   12.819339
     35          1           0       13.853211   33.281105   11.601599
     36          1           0       14.472239   31.340353    9.488484
     37          1           0       14.437641   28.830628    9.539220
     38          1           0       11.768844   30.649606   13.865171
     39          1           0       13.230471   26.746205   11.052262
     40          1           0       11.231708   28.333713   14.531234
     41          1           0       11.935952   26.406020   13.147045
     42          7           0       10.611260   34.746992   12.508725
     43          6           0       10.012996   33.696933   13.311712
     44          6           0        8.540727   34.063477   13.543050
     45          8           0        8.229814   35.247006   13.570534
     46          6           0       10.762359   33.531579   14.680427
     47          6           0       10.494833   34.650342   15.680732
     48          8           0       10.503637   32.243692   15.227001
     49          1           0        9.689484   32.277849   15.756548
     50          1           0       10.354014   35.696904   12.756895
     51          1           0       10.113527   32.751980   12.786971
     52          1           0       11.826847   33.531855   14.427116
     53          1           0        9.445747   34.658975   15.998496
     54          1           0       10.716483   35.630575   15.248855
     55          1           0       11.126854   34.507348   16.561662
     56          7           0        7.560592   33.126352   13.811579
     57          6           0        7.384372   31.674048   13.795611
     58          6           0        7.064522   31.137687   15.193936
     59          8           0        6.183504   30.325303   15.412142
     60          6           0        8.496075   30.848315   13.117434
     61          6           0        8.389359   29.314470   13.214329
     62          6           0        7.046111   28.634444   12.886139
     63          7           0        6.280901   29.310607   11.835931
     64          6           0        4.998704   29.678211   11.909229
     65          7           0        4.359452   29.734475   13.093298
     66          7           0        4.339209   29.974164   10.778551
     67          8           0        7.841458   31.633654   16.171930
     68          1           0        7.566682   31.226168   17.017391
     69          1           0        6.696532   33.628025   13.996177
     70          1           0        6.463191   31.491312   13.237320
     71          1           0        9.454454   31.107437   13.564709
     72          1           0        8.508013   31.144871   12.062822
     73          1           0        9.169725   28.921980   12.556099
     74          1           0        8.674370   28.988694   14.221921
     75          1           0        7.237408   27.606153   12.558908
     76          1           0        6.429516   28.565996   13.778833
     77          1           0        6.752547   29.412845   10.936671
     78          1           0        3.364348   29.900713   13.120531
     79          1           0        4.873164   29.794322   13.970615
     80          1           0        4.898213   30.068225    9.923504
     81          1           0        3.501479   30.537147   10.832099
 ---------------------------------------------------------------------

 SCF Done:  E(RB3LYP) =  -2054.06617119     A.U. after    1 cycles

 Alpha  occ. eigenvalues --  -19.34420 -19.28818 -19.28226 -19.24956 -19.24442
 Alpha  occ. eigenvalues --  -19.22431 -19.20291 -19.20096 -14.50150 -14.49954
 Alpha  occ. eigenvalues --  -14.49061 -14.48094 -14.47513 -14.46609 -14.45264
 Alpha  occ. eigenvalues --  -14.44546 -10.46566 -10.46477 -10.42762 -10.40346
 Alpha  occ. eigenvalues --  -10.38086 -10.37888 -10.37724 -10.34935 -10.34407
 Alpha  occ. eigenvalues --  -10.34231 -10.34031 -10.33670 -10.31594 -10.31341
 Alpha  occ. eigenvalues --  -10.31143 -10.30988 -10.30496 -10.30421 -10.29295
 Alpha  occ. eigenvalues --  -10.28107 -10.27922 -10.27771 -10.27652 -10.27573
 Alpha  occ. eigenvalues --  -10.27296 -10.26946  -1.25211  -1.19733  -1.16153
 Alpha  occ. eigenvalues --   -1.15043  -1.14929  -1.12778  -1.12444  -1.11998
 Alpha  occ. eigenvalues --   -1.11219  -1.07317  -1.04468  -1.04057  -1.02869
 Alpha  occ. eigenvalues --   -1.02559  -1.01925  -1.01125  -0.93112  -0.92528
 Alpha  occ. eigenvalues --   -0.90342  -0.89730  -0.87848  -0.86944  -0.85165
 Alpha  occ. eigenvalues --   -0.82755  -0.82434  -0.82030  -0.81106  -0.80699
 Alpha  occ. eigenvalues --   -0.77743  -0.76492  -0.76028  -0.73843  -0.73556
 Alpha  occ. eigenvalues --   -0.72245  -0.72188  -0.71318  -0.69977  -0.69652
 Alpha  occ. eigenvalues --   -0.68962  -0.68370  -0.68160  -0.67486  -0.65440
 Alpha  occ. eigenvalues --   -0.65323  -0.64398  -0.64300  -0.63315  -0.62964
 Alpha  occ. eigenvalues --   -0.62626  -0.61304  -0.61279  -0.60795  -0.60395
 Alpha  occ. eigenvalues --   -0.59917  -0.59309  -0.58914  -0.58514  -0.57966
 Alpha  occ. eigenvalues --   -0.57597  -0.57356  -0.56592  -0.56376  -0.56181
 Alpha  occ. eigenvalues --   -0.55858  -0.55699  -0.55150  -0.54746  -0.54716
 Alpha  occ. eigenvalues --   -0.54144  -0.53564  -0.52985  -0.52689  -0.52176
 Alpha  occ. eigenvalues --   -0.51941  -0.51464  -0.51146  -0.50822  -0.50456
 Alpha  occ. eigenvalues --   -0.50042  -0.49661  -0.49195  -0.49141  -0.48261
 Alpha  occ. eigenvalues --   -0.47759  -0.47700  -0.47548  -0.47256  -0.46795
 Alpha  occ. eigenvalues --   -0.46664  -0.46417  -0.46113  -0.45844  -0.45589
 Alpha  occ. eigenvalues --   -0.45361  -0.44767  -0.44406  -0.42971  -0.42701
 Alpha  occ. eigenvalues --   -0.42508  -0.42103  -0.41890  -0.41059  -0.40603
 Alpha  occ. eigenvalues --   -0.39132  -0.38882  -0.38089  -0.37064  -0.36623
 Alpha  occ. eigenvalues --   -0.36543  -0.34847  -0.33999  -0.33527  -0.32916
 Alpha  occ. eigenvalues --   -0.31718  -0.29642
 Alpha virt. eigenvalues --   -0.14067  -0.10935  -0.10580  -0.09752  -0.09125
 Alpha virt. eigenvalues --   -0.07688  -0.07438  -0.06773  -0.06718  -0.05416
 Alpha virt. eigenvalues --   -0.05206  -0.03373  -0.02323  -0.01854  -0.01693

 Mulliken charges:
               1
     1  N   -0.841440
     2  C   -0.057369
     3  C    0.579092
     4  O   -0.493449
     5  C   -0.308929
     6  C   -0.377941
     7  C    0.619905
     8  O   -0.512781
     9  O   -0.641455
    10  H    0.482702
    11  H    0.191574
    12  H    0.155204
    13  H    0.201932
    14  H    0.195453
    15  H    0.201767
    16  H    0.362184
    17  H    0.372203
    18  N   -0.572064
    19  C   -0.088866
    20  C    0.624886
    21  O   -0.491802
    22  C   -0.366445
    23  C    0.041206
    24  C   -0.003011
    25  C    0.045379
    26  C    0.297953
    27  C   -0.240560
    28  N   -0.686997
    29  C   -0.165615
    30  C   -0.156347
    31  C   -0.153352
    32  H    0.358121
    33  H    0.130173
    34  H    0.168861
    35  H    0.184532
    36  H    0.196722
    37  H    0.348058
    38  H    0.177053
    39  H    0.146520
    40  H    0.130315
    41  H    0.144129
    42  N   -0.607751
    43  C   -0.082351
    44  C    0.617335
    45  O   -0.493396
    46  C    0.123346
    47  C   -0.487149
    48  O   -0.647148
    49  H    0.429042
    50  H    0.364169
    51  H    0.154540
    52  H    0.169649
    53  H    0.160136
    54  H    0.178439
    55  H    0.179861
    56  N   -0.637189
    57  C   -0.028350
    58  C    0.619503
    59  O   -0.477508
    60  C   -0.339495
    61  C   -0.299912
    62  C   -0.167496
    63  N   -0.621331
    64  C    0.762260
    65  N   -0.785717
    66  N   -0.769718
    67  O   -0.559846
    68  H    0.442882
    69  H    0.345777
    70  H    0.173471
    71  H    0.218190
    72  H    0.160452
    73  H    0.187155
    74  H    0.166658
    75  H    0.193991
    76  H    0.187831
    77  H    0.408732
    78  H    0.369983
    79  H    0.412843
    80  H    0.421482
    81  H    0.359130
 Sum of Mulliken charges =   1.00000

 Dipole moment (field-independent basis, Debye):
    X=             36.4890    Y=            143.1307    Z=             60.9004  Tot=            159.7708
 Quadrupole moment (field-independent basis, Debye-Ang):
   XX=             93.9657   YY=           4013.2248   ZZ=            562.1984
   XY=           1068.9645   XZ=            453.3627   YZ=           1835.1125

 Normal termination of Gaussian 16 at Fri May 27 05:12:51 2022.
