 Gaussian 16, Revision C.01,
 Gaussian 16:  ES64L-G16RevC.01  3-Jul-2019

 ----------------------------------------------------------------------
 # B3LYP/6-31G* empiricaldispersion=gd3 guess=read geom=check nosymm in
 tegral(ultrafinegrid)
 ----------------------------------------------------------------------

 ------------------------------------------------------
 Candidate Structure: Conf:883 Charge calc in gas phase
 ------------------------------------------------------
 Structure from the checkpoint file:  "conf-883.chk"
 Charge =  1 Multiplicity = 1

                          Input orientation:
 ---------------------------------------------------------------------
 Center     Atomic      Atomic             Coordinates (Angstroms)
 Number     Number       Type             X           Y           Z
 ---------------------------------------------------------------------
      1          7           0       11.162941   28.275038   13.373701
      2          6           0       11.991831   28.640388   12.153906
      3          6           0       13.297135   29.333808   12.632206
      4          8           0       14.350145   28.860684   12.244244
      5          6           0       11.180242   29.387506   11.082448
      6          6           0       10.155424   28.525654   10.295275
      7          6           0        8.736207   28.587142   10.825344
      8          8           0        7.742006   28.795615   10.169693
      9          8           0        8.690993   28.384044   12.169283
     10          1           0        7.806628   28.596486   12.544350
     11          1           0       10.161644   28.156392   13.132427
     12          1           0       12.339831   27.697694   11.727957
     13          1           0       10.676133   30.262393   11.498187
     14          1           0       11.919544   29.769820   10.371343
     15          1           0       10.469367   27.473116   10.271891
     16          1           0       10.106802   28.859547    9.257163
     17          1           0       11.514093   27.418498   13.809625
     18          1           0       11.221691   29.015835   14.105020
     19          7           0       13.213072   30.332283   13.571872
     20          6           0       12.256161   31.451851   13.621383
     21          6           0       13.055507   32.712226   13.198298
     22          8           0       14.224723   32.791160   13.567466
     23          6           0       11.688540   31.651365   15.051026
     24          6           0       10.738020   30.562102   15.448340
     25          6           0       10.998654   29.490165   16.274653
     26          6           0        9.371274   30.402178   14.989417
     27          6           0        8.880424   29.190457   15.553201
     28          6           0        8.523475   31.175596   14.174693
     29          7           0        9.905163   28.639960   16.309333
     30          6           0        7.587531   28.716809   15.304968
     31          6           0        7.228164   30.720430   13.948210
     32          6           0        6.766628   29.500364   14.494182
     33          1           0       14.145026   30.684795   13.810691
     34          1           0       11.428070   31.253073   12.945989
     35          1           0       11.174581   32.618320   15.084346
     36          1           0       12.533152   31.716789   15.744188
     37          1           0       11.892963   29.264762   16.840011
     38          1           0        9.782540   27.899097   16.985471
     39          1           0        8.828310   32.135092   13.764093
     40          1           0        7.225400   27.794746   15.750664
     41          1           0        6.549692   31.332250   13.363492
     42          1           0        5.740842   29.188829   14.317486
     43          7           0       12.436396   33.664092   12.469050
     44          6           0       11.069787   33.696220   11.953449
     45          6           0       11.182936   34.215052   10.507078
     46          8           0       12.053797   35.045093   10.265225
     47          6           0       10.140326   34.544293   12.884156
     48          6           0       10.329300   36.051187   12.729310
     49          8           0        8.795593   34.140455   12.730911
     50          1           0        8.454217   34.576710   11.902856
     51          1           0       13.023268   34.437056   12.163914
     52          1           0       10.675434   32.683154   11.951584
     53          1           0       10.427767   34.254432   13.903931
     54          1           0        9.998684   36.380055   11.740705
     55          1           0       11.378710   36.335600   12.857342
     56          1           0        9.729292   36.565685   13.485173
     57          7           0       10.460225   33.656721    9.474450
     58          6           0        9.052883   33.227770    9.342026
     59          6           0        8.072691   34.442599    9.390893
     60          8           0        7.260797   34.532049    8.419809
     61          6           0        8.619501   32.101023   10.299408
     62          6           0        7.104101   31.905665   10.489725
     63          6           0        6.220550   31.746414    9.241334
     64          7           0        6.833077   30.930350    8.185605
     65          6           0        7.122051   31.348211    6.945271
     66          7           0        7.127736   32.631289    6.618401
     67          7           0        7.458051   30.388451    6.033486
     68          8           0        8.144245   35.200679   10.378538
     69          1           0       10.758560   34.136123    8.627705
     70          1           0        9.015224   32.823165    8.328691
     71          1           0        8.992261   32.302055   11.301230
     72          1           0        9.077119   31.169129    9.947415
     73          1           0        6.977312   31.022695   11.122831
     74          1           0        6.710012   32.756950   11.056441
     75          1           0        5.276794   31.267212    9.524828
     76          1           0        5.981084   32.721199    8.824269
     77          1           0        7.112772   29.990700    8.447432
     78          1           0        7.173535   32.883763    5.640322
     79          1           0        7.191798   33.434827    7.351641
     80          1           0        7.006977   29.485703    6.096488
     81          1           0        7.715582   30.675759    5.099598
 ---------------------------------------------------------------------

 SCF Done:  E(RB3LYP) =  -2054.02716567     A.U. after    1 cycles

 Alpha  occ. eigenvalues --  -19.35118 -19.29308 -19.24372 -19.20580 -19.19948
 Alpha  occ. eigenvalues --  -19.19549 -19.17325 -19.16596 -14.58639 -14.50933
 Alpha  occ. eigenvalues --  -14.49417 -14.48800 -14.47527 -14.46548 -14.44992
 Alpha  occ. eigenvalues --  -14.43775 -10.47498 -10.44879 -10.42108 -10.40161
 Alpha  occ. eigenvalues --  -10.38398 -10.37039 -10.35480 -10.35464 -10.35249
 Alpha  occ. eigenvalues --  -10.34995 -10.34792 -10.34748 -10.32246 -10.32044
 Alpha  occ. eigenvalues --  -10.31487 -10.31333 -10.31288 -10.31140 -10.31039
 Alpha  occ. eigenvalues --  -10.30982 -10.30832 -10.30076 -10.29968 -10.28452
 Alpha  occ. eigenvalues --  -10.28401 -10.22972  -1.25495  -1.16953  -1.16634
 Alpha  occ. eigenvalues --   -1.13674  -1.13277  -1.12939  -1.11700  -1.10687
 Alpha  occ. eigenvalues --   -1.10249  -1.07839  -1.03980  -1.02897  -1.02025
 Alpha  occ. eigenvalues --   -1.01379  -1.00496  -0.99431  -0.96250  -0.95808
 Alpha  occ. eigenvalues --   -0.93026  -0.89254  -0.88741  -0.87565  -0.85735
 Alpha  occ. eigenvalues --   -0.84624  -0.84063  -0.83227  -0.80523  -0.78653
 Alpha  occ. eigenvalues --   -0.77895  -0.77017  -0.75718  -0.74579  -0.74396
 Alpha  occ. eigenvalues --   -0.74219  -0.72736  -0.71544  -0.70851  -0.70463
 Alpha  occ. eigenvalues --   -0.69829  -0.68889  -0.68186  -0.67836  -0.66594
 Alpha  occ. eigenvalues --   -0.66231  -0.65844  -0.64912  -0.64118  -0.63423
 Alpha  occ. eigenvalues --   -0.62720  -0.61613  -0.60992  -0.60843  -0.60680
 Alpha  occ. eigenvalues --   -0.60487  -0.59753  -0.59115  -0.58357  -0.58329
 Alpha  occ. eigenvalues --   -0.57794  -0.57083  -0.56707  -0.56534  -0.56088
 Alpha  occ. eigenvalues --   -0.55670  -0.55455  -0.55054  -0.54782  -0.54480
 Alpha  occ. eigenvalues --   -0.54083  -0.53776  -0.53665  -0.53394  -0.52783
 Alpha  occ. eigenvalues --   -0.51893  -0.51652  -0.51379  -0.51166  -0.50590
 Alpha  occ. eigenvalues --   -0.50393  -0.50211  -0.49247  -0.49213  -0.48893
 Alpha  occ. eigenvalues --   -0.47979  -0.47567  -0.47422  -0.47212  -0.46747
 Alpha  occ. eigenvalues --   -0.46384  -0.46123  -0.45537  -0.45412  -0.45069
 Alpha  occ. eigenvalues --   -0.44733  -0.43819  -0.42917  -0.42683  -0.42500
 Alpha  occ. eigenvalues --   -0.42049  -0.40214  -0.40017  -0.39087  -0.38718
 Alpha  occ. eigenvalues --   -0.37410  -0.37196  -0.36384  -0.35337  -0.35245
 Alpha  occ. eigenvalues --   -0.34820  -0.33492  -0.33213  -0.32571  -0.32080
 Alpha  occ. eigenvalues --   -0.31026  -0.29816
 Alpha virt. eigenvalues --   -0.14799  -0.14000  -0.12166  -0.10604  -0.09685
 Alpha virt. eigenvalues --   -0.09490  -0.08071  -0.07254  -0.06395  -0.06060
 Alpha virt. eigenvalues --   -0.05465  -0.04448  -0.03376  -0.02941  -0.02415

 Mulliken charges:
               1
     1  N   -0.812685
     2  C   -0.096770
     3  C    0.573368
     4  O   -0.445086
     5  C   -0.322809
     6  C   -0.375995
     7  C    0.628343
     8  O   -0.454151
     9  O   -0.612014
    10  H    0.444808
    11  H    0.447666
    12  H    0.220887
    13  H    0.201059
    14  H    0.223995
    15  H    0.200814
    16  H    0.210658
    17  H    0.405354
    18  H    0.428224
    19  N   -0.601834
    20  C   -0.103405
    21  C    0.628751
    22  O   -0.509460
    23  C   -0.347264
    24  C    0.011808
    25  C   -0.028769
    26  C    0.065950
    27  C    0.287703
    28  C   -0.221575
    29  N   -0.674316
    30  C   -0.172618
    31  C   -0.171910
    32  C   -0.212763
    33  H    0.378253
    34  H    0.129954
    35  H    0.198270
    36  H    0.189410
    37  H    0.191374
    38  H    0.354969
    39  H    0.222261
    40  H    0.158962
    41  H    0.169737
    42  H    0.165123
    43  N   -0.605600
    44  C   -0.069543
    45  C    0.612945
    46  O   -0.503880
    47  C    0.136813
    48  C   -0.479935
    49  O   -0.679398
    50  H    0.456900
    51  H    0.373512
    52  H    0.124200
    53  H    0.129109
    54  H    0.199805
    55  H    0.152594
    56  H    0.167112
    57  N   -0.620532
    58  C   -0.059074
    59  C    0.629971
    60  O   -0.592675
    61  C   -0.311936
    62  C   -0.298347
    63  C   -0.173204
    64  N   -0.607377
    65  C    0.764234
    66  N   -0.781845
    67  N   -0.763767
    68  O   -0.562351
    69  H    0.341064
    70  H    0.128427
    71  H    0.182775
    72  H    0.111752
    73  H    0.133287
    74  H    0.193488
    75  H    0.173003
    76  H    0.223855
    77  H    0.368117
    78  H    0.351837
    79  H    0.451275
    80  H    0.364554
    81  H    0.364562
 Sum of Mulliken charges =   1.00000

 Dipole moment (field-independent basis, Debye):
    X=             41.8303    Y=            131.0679    Z=             54.3641  Tot=            147.9325
 Quadrupole moment (field-independent basis, Debye-Ang):
   XX=            107.0803   YY=           3274.6796   ZZ=            486.9947
   XY=           1130.0190   XZ=            502.5280   YZ=           1461.8870

 Normal termination of Gaussian 16 at Fri May 27 05:10:42 2022.
