 Gaussian 16, Revision C.01,
 Gaussian 16:  ES64L-G16RevC.01  3-Jul-2019

 ----------------------------------------------------------------------
 # B3LYP/6-31G* empiricaldispersion=gd3 guess=read geom=check nosymm in
 tegral(ultrafinegrid)
 ----------------------------------------------------------------------

 ------------------------------------------------------
 Candidate Structure: Conf:962 Charge calc in gas phase
 ------------------------------------------------------
 Structure from the checkpoint file:  "conf-962.chk"
 Charge =  1 Multiplicity = 1

                          Input orientation:
 ---------------------------------------------------------------------
 Center     Atomic      Atomic             Coordinates (Angstroms)
 Number     Number       Type             X           Y           Z
 ---------------------------------------------------------------------
      1          7           0       14.199361   31.988629   12.530636
      2          6           0       12.970544   32.867019   12.657281
      3          6           0       12.745309   32.917159   14.199733
      4          8           0       13.783869   33.117421   14.838038
      5          6           0       11.860562   32.517548   11.677033
      6          6           0       12.223500   32.678766   10.173130
      7          6           0       12.498641   31.343023    9.519974
      8          8           0       11.887354   30.861286    8.591288
      9          8           0       13.512308   30.692504   10.138069
     10          1           0       13.507970   29.757336    9.843936
     11          1           0       13.988322   30.987925   12.727055
     12          1           0       13.331388   33.876729   12.427403
     13          1           0       11.488389   31.509315   11.866786
     14          1           0       11.044411   33.210840   11.895012
     15          1           0       13.095295   33.333376   10.039408
     16          1           0       11.394686   33.137430    9.631779
     17          1           0       14.635457   32.032086   11.606695
     18          1           0       14.831472   32.326691   13.277780
     19          7           0       11.520524   32.905735   14.753678
     20          6           0       10.308569   32.145825   14.434908
     21          6           0        9.194185   32.810715   15.277755
     22          8           0        9.507746   33.297404   16.363057
     23          6           0       10.449773   30.655965   14.874338
     24          6           0       11.538974   29.917570   14.162373
     25          6           0       12.852494   29.846287   14.531725
     26          6           0       11.413481   29.184364   12.914292
     27          6           0       12.702198   28.706855   12.574867
     28          6           0       10.319660   28.875444   12.085176
     29          7           0       13.603075   29.192948   13.534503
     30          6           0       12.939089   27.922770   11.442090
     31          6           0       10.551854   28.104414   10.949796
     32          6           0       11.841637   27.632042   10.630602
     33          1           0       11.512130   33.178041   15.740489
     34          1           0       10.085620   32.199490   13.374695
     35          1           0        9.493034   30.156725   14.697444
     36          1           0       10.619642   30.653161   15.956228
     37          1           0       13.346696   30.252092   15.404001
     38          1           0       14.442993   28.676218   13.772211
     39          1           0        9.310801   29.194702   12.338912
     40          1           0       13.926418   27.522534   11.223531
     41          1           0        9.715939   27.828419   10.314507
     42          1           0       11.978140   27.004731    9.754634
     43          7           0        7.936314   32.808411   14.794620
     44          6           0        7.387331   32.204160   13.574820
     45          6           0        6.324043   33.219013   13.105738
     46          8           0        5.580213   33.691489   13.961258
     47          6           0        6.853882   30.755559   13.878649
     48          6           0        5.417324   30.701910   14.389955
     49          8           0        7.068735   29.894872   12.771641
     50          1           0        6.369513   30.120445   12.111375
     51          1           0        7.240972   33.268014   15.378575
     52          1           0        8.183387   32.097409   12.840879
     53          1           0        7.513861   30.379187   14.668866
     54          1           0        4.722041   31.026086   13.612284
     55          1           0        5.283104   31.351337   15.259714
     56          1           0        5.180935   29.671358   14.670547
     57          7           0        6.312777   33.719705   11.829243
     58          6           0        6.651422   33.115231   10.535364
     59          6           0        5.809479   31.840578   10.222492
     60          8           0        5.681712   31.569992    8.989028
     61          6           0        8.181111   32.880465   10.311314
     62          6           0        8.692806   31.425384   10.263153
     63          6           0        8.539470   30.674333    8.929024
     64          7           0        9.123350   31.390409    7.787887
     65          6           0        8.458084   32.136521    6.898156
     66          7           0        7.174451   32.429509    7.032981
     67          7           0        9.181135   32.641458    5.852567
     68          8           0        5.371043   31.182852   11.183587
     69          1           0        5.534372   34.368903   11.760497
     70          1           0        6.342140   33.870871    9.808951
     71          1           0        8.703157   33.419818   11.111083
     72          1           0        8.477602   33.386398    9.385081
     73          1           0        9.760708   31.426317   10.503652
     74          1           0        8.209727   30.820924   11.035181
     75          1           0        9.075243   29.723514    8.999760
     76          1           0        7.495446   30.454701    8.712695
     77          1           0       10.138873   31.392954    7.751602
     78          1           0        6.685203   32.830979    6.244371
     79          1           0        6.567391   32.141305    7.884269
     80          1           0        9.966723   32.102162    5.514286
     81          1           0        8.693381   33.167162    5.140686
 ---------------------------------------------------------------------

 SCF Done:  E(RB3LYP) =  -2054.03337636     A.U. after    3 cycles

 Alpha  occ. eigenvalues --  -19.34667 -19.29299 -19.25081 -19.20472 -19.20199
 Alpha  occ. eigenvalues --  -19.18425 -19.17014 -19.16385 -14.59263 -14.51006
 Alpha  occ. eigenvalues --  -14.49067 -14.48340 -14.48289 -14.46294 -14.44740
 Alpha  occ. eigenvalues --  -14.42808 -10.47360 -10.44579 -10.43175 -10.40917
 Alpha  occ. eigenvalues --  -10.38294 -10.36167 -10.35457 -10.35421 -10.35305
 Alpha  occ. eigenvalues --  -10.34635 -10.34554 -10.34242 -10.31981 -10.31590
 Alpha  occ. eigenvalues --  -10.31254 -10.31176 -10.30864 -10.30803 -10.30760
 Alpha  occ. eigenvalues --  -10.30639 -10.30626 -10.29898 -10.29679 -10.28842
 Alpha  occ. eigenvalues --  -10.28281 -10.22297  -1.25475  -1.17945  -1.16657
 Alpha  occ. eigenvalues --   -1.13533  -1.12992  -1.12740  -1.10885  -1.10208
 Alpha  occ. eigenvalues --   -1.10020  -1.07785  -1.04830  -1.02603  -1.01872
 Alpha  occ. eigenvalues --   -1.01020  -1.00289  -0.98744  -0.96205  -0.95954
 Alpha  occ. eigenvalues --   -0.92666  -0.89248  -0.88900  -0.87553  -0.85405
 Alpha  occ. eigenvalues --   -0.84222  -0.83702  -0.82960  -0.80581  -0.78519
 Alpha  occ. eigenvalues --   -0.78186  -0.76748  -0.75520  -0.74543  -0.74006
 Alpha  occ. eigenvalues --   -0.73897  -0.72121  -0.71420  -0.71001  -0.70757
 Alpha  occ. eigenvalues --   -0.69611  -0.69259  -0.67918  -0.67774  -0.66520
 Alpha  occ. eigenvalues --   -0.65785  -0.65454  -0.64732  -0.64095  -0.63627
 Alpha  occ. eigenvalues --   -0.62128  -0.61239  -0.61055  -0.60855  -0.60329
 Alpha  occ. eigenvalues --   -0.60281  -0.59573  -0.59369  -0.58624  -0.58260
 Alpha  occ. eigenvalues --   -0.57572  -0.57347  -0.56826  -0.56349  -0.55961
 Alpha  occ. eigenvalues --   -0.55652  -0.55240  -0.55083  -0.54914  -0.54529
 Alpha  occ. eigenvalues --   -0.54052  -0.53676  -0.53495  -0.52848  -0.52639
 Alpha  occ. eigenvalues --   -0.51819  -0.51480  -0.51253  -0.50838  -0.50636
 Alpha  occ. eigenvalues --   -0.50009  -0.49962  -0.49148  -0.48765  -0.48309
 Alpha  occ. eigenvalues --   -0.47548  -0.47206  -0.47137  -0.46953  -0.46650
 Alpha  occ. eigenvalues --   -0.46302  -0.46103  -0.45669  -0.45451  -0.45111
 Alpha  occ. eigenvalues --   -0.44614  -0.43944  -0.42805  -0.42403  -0.41915
 Alpha  occ. eigenvalues --   -0.41172  -0.40199  -0.39754  -0.39646  -0.38584
 Alpha  occ. eigenvalues --   -0.37815  -0.37199  -0.35837  -0.35088  -0.34859
 Alpha  occ. eigenvalues --   -0.34506  -0.33213  -0.32777  -0.32501  -0.31654
 Alpha  occ. eigenvalues --   -0.30640  -0.29806
 Alpha virt. eigenvalues --   -0.14473  -0.13792  -0.13090  -0.11062  -0.09214
 Alpha virt. eigenvalues --   -0.08771  -0.07862  -0.06250  -0.06117  -0.05378
 Alpha virt. eigenvalues --   -0.05127  -0.04149  -0.03908  -0.03386  -0.02624

 Mulliken charges:
               1
     1  N   -0.762217
     2  C   -0.118072
     3  C    0.630912
     4  O   -0.521447
     5  C   -0.324221
     6  C   -0.379138
     7  C    0.612278
     8  O   -0.455485
     9  O   -0.594140
    10  H    0.435634
    11  H    0.450986
    12  H    0.226894
    13  H    0.213194
    14  H    0.213245
    15  H    0.187155
    16  H    0.210923
    17  H    0.407011
    18  H    0.416860
    19  N   -0.600346
    20  C   -0.088554
    21  C    0.628741
    22  O   -0.516492
    23  C   -0.369340
    24  C    0.100121
    25  C   -0.078868
    26  C    0.063216
    27  C    0.285569
    28  C   -0.224125
    29  N   -0.717758
    30  C   -0.240314
    31  C   -0.154209
    32  C   -0.151355
    33  H    0.380785
    34  H    0.157659
    35  H    0.203487
    36  H    0.192148
    37  H    0.196839
    38  H    0.359122
    39  H    0.219673
    40  H    0.153445
    41  H    0.164355
    42  H    0.161374
    43  N   -0.609110
    44  C   -0.081402
    45  C    0.633517
    46  O   -0.518989
    47  C    0.142359
    48  C   -0.478736
    49  O   -0.660927
    50  H    0.448065
    51  H    0.373079
    52  H    0.145226
    53  H    0.131818
    54  H    0.200039
    55  H    0.159766
    56  H    0.159027
    57  N   -0.611851
    58  C   -0.059652
    59  C    0.613922
    60  O   -0.596398
    61  C   -0.308824
    62  C   -0.316760
    63  C   -0.193335
    64  N   -0.615898
    65  C    0.767729
    66  N   -0.788133
    67  N   -0.764541
    68  O   -0.560573
    69  H    0.344203
    70  H    0.155673
    71  H    0.144732
    72  H    0.144627
    73  H    0.114671
    74  H    0.203054
    75  H    0.165949
    76  H    0.233070
    77  H    0.374598
    78  H    0.350653
    79  H    0.457147
    80  H    0.363622
    81  H    0.363032
 Sum of Mulliken charges =   1.00000

 Dipole moment (field-independent basis, Debye):
    X=             65.5503    Y=            151.4369    Z=             44.1446  Tot=            170.8179
 Quadrupole moment (field-independent basis, Debye-Ang):
   XX=            624.2630   YY=           4546.0259   ZZ=            197.1990
   XY=           2045.2336   XZ=            664.2801   YZ=           1361.2324

 Normal termination of Gaussian 16 at Fri May 27 05:11:32 2022.
