 Gaussian 16, Revision C.01,
 Gaussian 16:  ES64L-G16RevC.01  3-Jul-2019

 ----------------------------------------------------------------------
 # B3LYP/6-31G* empiricaldispersion=gd3 guess=read geom=check nosymm in
 tegral(ultrafinegrid)
 ----------------------------------------------------------------------

 -----------------------------------------------------
 Candidate Structure: Conf:62 Charge calc in gas phase
 -----------------------------------------------------
 Structure from the checkpoint file:  "conf-62.chk"
 Charge =  1 Multiplicity = 1

                          Input orientation:
 ---------------------------------------------------------------------
 Center     Atomic      Atomic             Coordinates (Angstroms)
 Number     Number       Type             X           Y           Z
 ---------------------------------------------------------------------
      1          7           0        9.140345   29.841567   13.928994
      2          6           0        9.394951   28.481976   13.291841
      3          6           0       10.827977   27.942527   13.576141
      4          8           0       10.890135   26.922935   14.251393
      5          6           0        9.031645   28.418264   11.795793
      6          6           0        7.536275   28.177197   11.449901
      7          6           0        6.629561   29.325531   11.843908
      8          8           0        6.271110   30.216840   11.115391
      9          8           0        6.311366   29.398364   13.185990
     10          1           0        6.360446   28.515317   13.594248
     11          1           0        9.678877   30.600413   13.495123
     12          1           0        8.767640   27.795156   13.864374
     13          1           0        9.411576   29.281257   11.246294
     14          1           0        9.582738   27.566900   11.384997
     15          1           0        7.198326   27.244815   11.920905
     16          1           0        7.453865   28.052760   10.368053
     17          1           0        8.142125   30.086924   13.866164
     18          1           0        9.424397   29.849195   14.926290
     19          7           0       11.900966   28.498853   12.968439
     20          6           0       12.141810   29.817710   12.406551
     21          6           0       13.143353   29.631091   11.247879
     22          8           0       13.937972   28.699992   11.307037
     23          6           0       12.820430   30.762113   13.447779
     24          6           0       11.945541   31.047308   14.625617
     25          6           0       11.653334   30.198370   15.662327
     26          6           0       11.149143   32.243038   14.824324
     27          6           0       10.377280   32.044776   15.998468
     28          6           0       11.055482   33.466461   14.134317
     29          7           0       10.636145   30.748150   16.454499
     30          6           0        9.531949   33.030923   16.515034
     31          6           0       10.228932   34.455520   14.654662
     32          6           0        9.480780   34.242764   15.832394
     33          1           0       12.750248   27.936502   13.015577
     34          1           0       11.205570   30.252960   12.054965
     35          1           0       13.095995   31.693329   12.941646
     36          1           0       13.755514   30.278840   13.750610
     37          1           0       12.044518   29.215631   15.887022
     38          1           0       10.499018   30.475396   17.420122
     39          1           0       11.599702   33.644719   13.212464
     40          1           0        8.960981   32.870490   17.425201
     41          1           0       10.161232   35.409684   14.140785
     42          1           0        8.854521   35.041971   16.217656
     43          7           0       13.177723   30.597254   10.300699
     44          6           0       12.131605   31.566621    9.987383
     45          6           0       10.857899   30.835241    9.551074
     46          8           0       10.879295   29.652879    9.210955
     47          6           0       12.722359   32.598522    8.939973
     48          6           0       11.783552   33.019236    7.805297
     49          8           0       13.274733   33.699126    9.620332
     50          1           0       12.524958   34.176319   10.033699
     51          1           0       13.844454   30.391833    9.564642
     52          1           0       11.893199   32.168457   10.865781
     53          1           0       13.575158   32.093092    8.469306
     54          1           0       12.349755   33.671652    7.134465
     55          1           0       10.916031   33.580177    8.158944
     56          1           0       11.430384   32.153675    7.233696
     57          7           0        9.658765   31.512112    9.520075
     58          6           0        9.045239   32.617901   10.281341
     59          6           0        9.768177   33.998231   10.293360
     60          8           0        9.148040   34.946872    9.731423
     61          6           0        8.744094   32.182088   11.725558
     62          6           0        7.751146   33.043970   12.546148
     63          6           0        6.820396   33.994612   11.782622
     64          7           0        5.987029   33.325023   10.771665
     65          6           0        5.804151   33.743018    9.506752
     66          7           0        6.619863   34.618709    8.932865
     67          7           0        4.763616   33.213506    8.820682
     68          8           0       10.848288   34.063160   10.920420
     69          1           0        8.954107   30.890816    9.135010
     70          1           0        8.103738   32.748428    9.759965
     71          1           0        9.707603   32.163701   12.251028
     72          1           0        8.361047   31.165820   11.655587
     73          1           0        7.134168   32.378833   13.167383
     74          1           0        8.308216   33.675826   13.242606
     75          1           0        6.155526   34.485946   12.503059
     76          1           0        7.404090   34.772052   11.293344
     77          1           0        5.597659   32.421021   11.019536
     78          1           0        6.345034   35.035653    8.053491
     79          1           0        7.635711   34.766146    9.247229
     80          1           0        3.959448   32.846779    9.308648
     81          1           0        4.674727   33.359014    7.825736
 ---------------------------------------------------------------------

 SCF Done:  E(RB3LYP) =  -2054.00234301     A.U. after    3 cycles

 Alpha  occ. eigenvalues --  -19.35552 -19.29825 -19.23278 -19.20571 -19.20162
 Alpha  occ. eigenvalues --  -19.18762 -19.18610 -19.17990 -14.59676 -14.50467
 Alpha  occ. eigenvalues --  -14.49981 -14.49915 -14.47768 -14.47250 -14.45170
 Alpha  occ. eigenvalues --  -14.44106 -10.47716 -10.46051 -10.41696 -10.40394
 Alpha  occ. eigenvalues --  -10.37721 -10.37622 -10.36414 -10.35229 -10.35055
 Alpha  occ. eigenvalues --  -10.34820 -10.34079 -10.33379 -10.33270 -10.32458
 Alpha  occ. eigenvalues --  -10.31292 -10.31050 -10.30533 -10.30270 -10.30111
 Alpha  occ. eigenvalues --  -10.30058 -10.29762 -10.29747 -10.29090 -10.28706
 Alpha  occ. eigenvalues --  -10.28282 -10.23654  -1.25532  -1.17723  -1.16074
 Alpha  occ. eigenvalues --   -1.14381  -1.14074  -1.12908  -1.12100  -1.11549
 Alpha  occ. eigenvalues --   -1.09247  -1.07132  -1.04008  -1.03872  -1.03225
 Alpha  occ. eigenvalues --   -1.01707  -1.00998  -1.00631  -0.95560  -0.94731
 Alpha  occ. eigenvalues --   -0.91740  -0.91004  -0.88376  -0.86759  -0.85148
 Alpha  occ. eigenvalues --   -0.84220  -0.83720  -0.82759  -0.79492  -0.79091
 Alpha  occ. eigenvalues --   -0.77986  -0.77545  -0.76684  -0.75998  -0.75049
 Alpha  occ. eigenvalues --   -0.72844  -0.72571  -0.71756  -0.71259  -0.70780
 Alpha  occ. eigenvalues --   -0.69992  -0.69578  -0.68390  -0.67492  -0.66761
 Alpha  occ. eigenvalues --   -0.66370  -0.66303  -0.65519  -0.64327  -0.63872
 Alpha  occ. eigenvalues --   -0.63037  -0.62539  -0.61681  -0.61376  -0.60394
 Alpha  occ. eigenvalues --   -0.60052  -0.59480  -0.58695  -0.58528  -0.57918
 Alpha  occ. eigenvalues --   -0.57782  -0.57273  -0.56801  -0.56663  -0.56440
 Alpha  occ. eigenvalues --   -0.55482  -0.55424  -0.54986  -0.54701  -0.53813
 Alpha  occ. eigenvalues --   -0.53562  -0.52870  -0.52801  -0.52645  -0.52426
 Alpha  occ. eigenvalues --   -0.51916  -0.51772  -0.51309  -0.50727  -0.50633
 Alpha  occ. eigenvalues --   -0.50366  -0.50079  -0.49964  -0.49824  -0.48844
 Alpha  occ. eigenvalues --   -0.48683  -0.48212  -0.47990  -0.47738  -0.47066
 Alpha  occ. eigenvalues --   -0.46797  -0.46565  -0.45536  -0.45292  -0.45071
 Alpha  occ. eigenvalues --   -0.44605  -0.44203  -0.43701  -0.43434  -0.42882
 Alpha  occ. eigenvalues --   -0.42188  -0.40900  -0.38995  -0.38521  -0.38322
 Alpha  occ. eigenvalues --   -0.37370  -0.36597  -0.35619  -0.34937  -0.34279
 Alpha  occ. eigenvalues --   -0.34004  -0.33719  -0.33626  -0.32392  -0.31918
 Alpha  occ. eigenvalues --   -0.31798  -0.31483
 Alpha virt. eigenvalues --   -0.15825  -0.12637  -0.12215  -0.10808  -0.10305
 Alpha virt. eigenvalues --   -0.09473  -0.08130  -0.07257  -0.06520  -0.06371
 Alpha virt. eigenvalues --   -0.05807  -0.04716  -0.04233  -0.03457  -0.02957

 Mulliken charges:
               1
     1  N   -0.810666
     2  C   -0.122008
     3  C    0.580849
     4  O   -0.478485
     5  C   -0.322699
     6  C   -0.382439
     7  C    0.590862
     8  O   -0.426786
     9  O   -0.581108
    10  H    0.431896
    11  H    0.429345
    12  H    0.199398
    13  H    0.221598
    14  H    0.240687
    15  H    0.183858
    16  H    0.226034
    17  H    0.417976
    18  H    0.436525
    19  N   -0.563648
    20  C   -0.087517
    21  C    0.647319
    22  O   -0.512497
    23  C   -0.360645
    24  C    0.073509
    25  C   -0.075506
    26  C    0.039632
    27  C    0.261756
    28  C   -0.210179
    29  N   -0.700240
    30  C   -0.174220
    31  C   -0.165511
    32  C   -0.145573
    33  H    0.376603
    34  H    0.120079
    35  H    0.203358
    36  H    0.193914
    37  H    0.198089
    38  H    0.357173
    39  H    0.202803
    40  H    0.149170
    41  H    0.167939
    42  H    0.155508
    43  N   -0.593126
    44  C   -0.084214
    45  C    0.562281
    46  O   -0.524402
    47  C    0.138799
    48  C   -0.489510
    49  O   -0.640739
    50  H    0.428787
    51  H    0.353410
    52  H    0.194144
    53  H    0.141919
    54  H    0.176164
    55  H    0.169092
    56  H    0.145509
    57  N   -0.603643
    58  C   -0.033769
    59  C    0.637724
    60  O   -0.595415
    61  C   -0.323964
    62  C   -0.310246
    63  C   -0.165103
    64  N   -0.607883
    65  C    0.772055
    66  N   -0.777666
    67  N   -0.764132
    68  O   -0.568476
    69  H    0.326150
    70  H    0.129924
    71  H    0.168572
    72  H    0.109599
    73  H    0.128597
    74  H    0.197873
    75  H    0.180545
    76  H    0.218051
    77  H    0.368718
    78  H    0.357305
    79  H    0.446407
    80  H    0.372127
    81  H    0.372384
 Sum of Mulliken charges =   1.00000

 Dipole moment (field-independent basis, Debye):
    X=             28.3185    Y=            148.4827    Z=             61.3973  Tot=            163.1523
 Quadrupole moment (field-independent basis, Debye-Ang):
   XX=            -92.3482   YY=           4349.6557   ZZ=            602.7584
   XY=            858.5998   XZ=            409.9178   YZ=           1882.1960

 Normal termination of Gaussian 16 at Fri May 27 05:11:56 2022.
