 Gaussian 16, Revision C.01,
 Gaussian 16:  ES64L-G16RevC.01  3-Jul-2019

 ----------------------------------------------------------------------
 # B3LYP/6-31G* empiricaldispersion=gd3 guess=read geom=check nosymm in
 tegral(ultrafinegrid)
 ----------------------------------------------------------------------

 ------------------------------------------------------
 Candidate Structure: Conf:879 Charge calc in gas phase
 ------------------------------------------------------
 Structure from the checkpoint file:  "conf-879.chk"
 Charge =  1 Multiplicity = 1

                          Input orientation:
 ---------------------------------------------------------------------
 Center     Atomic      Atomic             Coordinates (Angstroms)
 Number     Number       Type             X           Y           Z
 ---------------------------------------------------------------------
      1          7           0       10.162007   29.726308   12.753395
      2          6           0       10.288758   29.171433   14.149048
      3          6           0       11.169764   30.065562   15.058167
      4          8           0       11.653836   29.542573   16.051363
      5          6           0       10.848152   27.740379   14.102346
      6          6           0        9.872930   26.651293   13.613840
      7          6           0        9.689709   26.547809   12.105235
      8          8           0        9.912661   27.458249   11.319344
      9          8           0        9.230892   25.392191   11.620801
     10          1           0        9.108950   24.728749   12.321580
     11          1           0       10.031753   28.939162   12.072585
     12          1           0        9.278458   29.149762   14.560212
     13          1           0       11.771777   27.715796   13.511000
     14          1           0       11.135664   27.509770   15.129900
     15          1           0        8.873505   26.805554   14.047463
     16          1           0       10.218696   25.679895   13.988530
     17          1           0        9.347608   30.365027   12.674927
     18          1           0       11.010957   30.235829   12.493335
     19          7           0       11.508222   31.334659   14.661071
     20          6           0       10.724998   32.437343   14.073443
     21          6           0       11.759700   33.571434   13.892444
     22          8           0       12.632357   33.707972   14.747113
     23          6           0        9.548940   32.900330   14.980227
     24          6           0        8.526200   31.816845   15.130672
     25          6           0        8.245587   31.062506   16.244199
     26          6           0        7.731503   31.265139   14.059772
     27          6           0        7.015157   30.152906   14.583472
     28          6           0        7.612349   31.573219   12.689222
     29          7           0        7.352554   30.052603   15.922838
     30          6           0        6.211869   29.342354   13.772021
     31          6           0        6.824196   30.761800   11.874983
     32          6           0        6.136518   29.653660   12.415275
     33          1           0       12.208699   31.738206   15.288681
     34          1           0       10.319681   32.159015   13.101720
     35          1           0        9.099085   33.781854   14.510086
     36          1           0        9.963405   33.194892   15.949702
     37          1           0        8.639032   31.148370   17.247704
     38          1           0        6.894290   29.456503   16.596357
     39          1           0        8.086252   32.452009   12.272301
     40          1           0        5.661289   28.501026   14.184873
     41          1           0        6.729922   31.016521   10.822392
     42          1           0        5.516637   29.042262   11.766125
     43          7           0       11.691399   34.351193   12.787513
     44          6           0       10.657966   34.465283   11.760429
     45          6           0       11.372287   34.805459   10.453350
     46          8           0       12.268226   35.644507   10.461094
     47          6           0        9.590350   35.572989   12.138543
     48          6           0        9.199202   36.527159   11.010741
     49          8           0        8.443898   34.948935   12.704036
     50          1           0        7.980055   34.530443   11.954584
     51          1           0       12.404411   35.075484   12.742127
     52          1           0       10.115942   33.531148   11.668836
     53          1           0       10.037829   36.151485   12.953458
     54          1           0        8.771184   35.975711   10.169405
     55          1           0       10.062854   37.099887   10.661293
     56          1           0        8.447697   37.223474   11.393865
     57          7           0       10.942746   34.252785    9.271050
     58          6           0       10.257309   32.990025    8.961448
     59          6           0        8.745809   32.906268    9.333727
     60          8           0        8.060907   32.139910    8.579233
     61          6           0       11.055195   31.778621    9.525692
     62          6           0       10.369553   30.401998    9.605163
     63          6           0        9.829142   29.737989    8.319325
     64          7           0       10.548433   30.076855    7.085223
     65          6           0       10.045347   30.793434    6.062790
     66          7           0        8.948173   31.517847    6.207373
     67          7           0       10.726145   30.772693    4.888240
     68          8           0        8.329763   33.498141   10.341749
     69          1           0       11.471290   34.648071    8.501040
     70          1           0       10.298027   32.935736    7.872045
     71          1           0       11.367767   32.033653   10.546475
     72          1           0       11.987113   31.696549    8.952790
     73          1           0       11.095158   29.715453   10.061181
     74          1           0        9.508184   30.462121   10.280713
     75          1           0        9.864464   28.650092    8.439633
     76          1           0        8.789348   30.020321    8.178736
     77          1           0       11.489650   29.724216    6.973792
     78          1           0        8.507974   31.908174    5.384915
     79          1           0        8.557537   31.795239    7.185372
     80          1           0       11.282370   29.968128    4.635255
     81          1           0       10.432636   31.367805    4.126976
 ---------------------------------------------------------------------

 SCF Done:  E(RB3LYP) =  -2054.02848673     A.U. after    1 cycles

 Alpha  occ. eigenvalues --  -19.33453 -19.28533 -19.22093 -19.20292 -19.19407
 Alpha  occ. eigenvalues --  -19.19086 -19.18893 -19.18159 -14.55432 -14.50798
 Alpha  occ. eigenvalues --  -14.50725 -14.47936 -14.47815 -14.45477 -14.44018
 Alpha  occ. eigenvalues --  -14.43941 -10.46739 -10.46391 -10.40181 -10.37397
 Alpha  occ. eigenvalues --  -10.37217 -10.36578 -10.36556 -10.34466 -10.34153
 Alpha  occ. eigenvalues --  -10.33652 -10.32634 -10.32367 -10.32019 -10.31534
 Alpha  occ. eigenvalues --  -10.30768 -10.30705 -10.30455 -10.30163 -10.29070
 Alpha  occ. eigenvalues --  -10.28298 -10.28207 -10.27782 -10.27594 -10.27594
 Alpha  occ. eigenvalues --  -10.27525 -10.22636  -1.24555  -1.16272  -1.14809
 Alpha  occ. eigenvalues --   -1.14444  -1.12089  -1.11741  -1.11048  -1.11038
 Alpha  occ. eigenvalues --   -1.07947  -1.07679  -1.04471  -1.03556  -1.01890
 Alpha  occ. eigenvalues --   -1.01697  -1.00159  -0.99948  -0.93788  -0.93577
 Alpha  occ. eigenvalues --   -0.90605  -0.89905  -0.86631  -0.85097  -0.84636
 Alpha  occ. eigenvalues --   -0.83473  -0.83114  -0.81559  -0.79118  -0.78309
 Alpha  occ. eigenvalues --   -0.77657  -0.76171  -0.75907  -0.74749  -0.72312
 Alpha  occ. eigenvalues --   -0.71991  -0.71867  -0.71290  -0.69819  -0.68855
 Alpha  occ. eigenvalues --   -0.68769  -0.68166  -0.68026  -0.66081  -0.65617
 Alpha  occ. eigenvalues --   -0.65285  -0.65145  -0.64021  -0.63284  -0.63096
 Alpha  occ. eigenvalues --   -0.62901  -0.61657  -0.60887  -0.59774  -0.59325
 Alpha  occ. eigenvalues --   -0.59073  -0.58545  -0.58208  -0.57741  -0.57475
 Alpha  occ. eigenvalues --   -0.57251  -0.56350  -0.56034  -0.55568  -0.55204
 Alpha  occ. eigenvalues --   -0.55066  -0.54527  -0.53846  -0.53483  -0.53057
 Alpha  occ. eigenvalues --   -0.52656  -0.52342  -0.51873  -0.51669  -0.51306
 Alpha  occ. eigenvalues --   -0.50820  -0.50607  -0.50253  -0.49997  -0.49737
 Alpha  occ. eigenvalues --   -0.49474  -0.48788  -0.48703  -0.48414  -0.47786
 Alpha  occ. eigenvalues --   -0.47430  -0.47163  -0.46559  -0.46507  -0.45893
 Alpha  occ. eigenvalues --   -0.45648  -0.45418  -0.45344  -0.44968  -0.43993
 Alpha  occ. eigenvalues --   -0.43522  -0.43294  -0.43048  -0.42327  -0.42252
 Alpha  occ. eigenvalues --   -0.42111  -0.41113  -0.39104  -0.38449  -0.37599
 Alpha  occ. eigenvalues --   -0.36657  -0.35679  -0.35299  -0.34596  -0.34283
 Alpha  occ. eigenvalues --   -0.33682  -0.33439  -0.32721  -0.32342  -0.31445
 Alpha  occ. eigenvalues --   -0.30947  -0.30142
 Alpha virt. eigenvalues --   -0.13487  -0.11693  -0.10801  -0.09707  -0.07977
 Alpha virt. eigenvalues --   -0.07937  -0.07224  -0.06689  -0.06551  -0.05617
 Alpha virt. eigenvalues --   -0.04516  -0.03315  -0.03190  -0.02235  -0.01948

 Mulliken charges:
               1
     1  N   -0.839169
     2  C   -0.103644
     3  C    0.613642
     4  O   -0.481885
     5  C   -0.301713
     6  C   -0.427689
     7  C    0.638627
     8  O   -0.486236
     9  O   -0.524861
    10  H    0.439241
    11  H    0.454399
    12  H    0.235541
    13  H    0.175097
    14  H    0.232769
    15  H    0.209586
    16  H    0.194145
    17  H    0.420696
    18  H    0.401006
    19  N   -0.633595
    20  C   -0.072519
    21  C    0.619920
    22  O   -0.513985
    23  C   -0.358464
    24  C    0.065278
    25  C   -0.007932
    26  C    0.056346
    27  C    0.291482
    28  C   -0.313505
    29  N   -0.675031
    30  C   -0.182150
    31  C   -0.159050
    32  C   -0.159997
    33  H    0.377542
    34  H    0.102079
    35  H    0.231482
    36  H    0.173962
    37  H    0.186838
    38  H    0.345744
    39  H    0.195784
    40  H    0.143176
    41  H    0.183362
    42  H    0.148885
    43  N   -0.613721
    44  C   -0.054862
    45  C    0.583062
    46  O   -0.512699
    47  C    0.154206
    48  C   -0.495425
    49  O   -0.647427
    50  H    0.439873
    51  H    0.362509
    52  H    0.155185
    53  H    0.156180
    54  H    0.169817
    55  H    0.169526
    56  H    0.168227
    57  N   -0.592709
    58  C   -0.066486
    59  C    0.635581
    60  O   -0.617291
    61  C   -0.269214
    62  C   -0.312164
    63  C   -0.161844
    64  N   -0.599591
    65  C    0.783493
    66  N   -0.784061
    67  N   -0.765133
    68  O   -0.557633
    69  H    0.335842
    70  H    0.137770
    71  H    0.143866
    72  H    0.147164
    73  H    0.135189
    74  H    0.164285
    75  H    0.187019
    76  H    0.221562
    77  H    0.351117
    78  H    0.355958
    79  H    0.454489
    80  H    0.369908
    81  H    0.373233
 Sum of Mulliken charges =   1.00000

 Dipole moment (field-independent basis, Debye):
    X=             46.3685    Y=            134.1990    Z=             45.3044  Tot=            149.0366
 Quadrupole moment (field-independent basis, Debye-Ang):
   XX=            197.6904   YY=           3503.4467   ZZ=            293.2200
   XY=           1295.1175   XZ=            396.0717   YZ=           1210.1251

 Normal termination of Gaussian 16 at Fri May 27 05:10:41 2022.
