 Gaussian 16, Revision C.01,
 Gaussian 16:  ES64L-G16RevC.01  3-Jul-2019

 ----------------------------------------------------------------------
 # B3LYP/6-31G* empiricaldispersion=gd3 guess=read geom=check nosymm in
 tegral(ultrafinegrid)
 ----------------------------------------------------------------------

 ------------------------------------------------------
 Candidate Structure: Conf:472 Charge calc in gas phase
 ------------------------------------------------------
 Structure from the checkpoint file:  "conf-472.chk"
 Charge =  1 Multiplicity = 1

                          Input orientation:
 ---------------------------------------------------------------------
 Center     Atomic      Atomic             Coordinates (Angstroms)
 Number     Number       Type             X           Y           Z
 ---------------------------------------------------------------------
      1          7           0       11.241885   31.431105    9.704773
      2          6           0       12.506432   32.119097   10.200249
      3          6           0       13.530993   31.160594   10.862600
      4          8           0       14.648505   31.139638   10.363252
      5          6           0       12.236504   33.334368   11.095263
      6          6           0       11.515748   34.530964   10.418556
      7          6           0       10.009856   34.455672   10.520305
      8          8           0        9.342766   35.023687   11.358187
      9          8           0        9.445760   33.631623    9.592399
     10          1           0        8.454413   33.557989    9.796570
     11          1           0       11.463244   30.762025    8.951106
     12          1           0       13.006945   32.444784    9.286608
     13          1           0       11.754072   33.060845   12.038303
     14          1           0       13.233776   33.680228   11.387080
     15          1           0       11.813791   34.619477    9.367165
     16          1           0       11.810164   35.446949   10.934396
     17          1           0       10.784683   30.866314   10.427960
     18          1           0       10.551023   32.130343    9.373801
     19          7           0       13.244655   30.530870   12.032633
     20          6           0       12.006870   30.080658   12.652066
     21          6           0       12.293958   29.983567   14.165236
     22          8           0       13.400197   29.580434   14.504071
     23          6           0       11.645957   28.626523   12.195798
     24          6           0       11.413220   28.498556   10.722902
     25          6           0       12.359327   28.565636    9.728164
     26          6           0       10.128060   28.377604   10.064385
     27          6           0       10.364334   28.414186    8.664482
     28          6           0        8.814022   28.186920   10.528997
     29          7           0       11.734232   28.600287    8.481622
     30          6           0        9.337555   28.282295    7.725200
     31          6           0        7.792092   28.035031    9.600291
     32          6           0        8.049603   28.088722    8.214289
     33          1           0       14.060557   30.105738   12.472954
     34          1           0       11.191235   30.772921   12.435216
     35          1           0       10.758812   28.302218   12.751454
     36          1           0       12.472970   27.988049   12.523285
     37          1           0       13.435637   28.639300    9.796036
     38          1           0       12.214411   28.369559    7.621019
     39          1           0        8.605377   28.126735   11.593596
     40          1           0        9.539124   28.301109    6.657959
     41          1           0        6.776695   27.864027    9.944688
     42          1           0        7.229674   27.957801    7.514680
     43          7           0       11.281875   30.164354   15.056451
     44          6           0       10.071947   30.980136   14.963665
     45          6           0       10.320877   32.285412   14.213817
     46          8           0       11.437878   32.803249   14.207807
     47          6           0        9.631585   31.314771   16.449070
     48          6           0       10.622390   32.207493   17.191114
     49          8           0        8.392010   31.974686   16.488439
     50          1           0        7.702270   31.372557   16.160183
     51          1           0       11.617055   29.993674   15.999124
     52          1           0        9.250219   30.419053   14.509455
     53          1           0        9.572397   30.332367   16.948547
     54          1           0       10.294750   32.300008   18.229692
     55          1           0       10.639179   33.204493   16.743466
     56          1           0       11.643195   31.815239   17.178646
     57          7           0        9.273095   32.938230   13.614697
     58          6           0        8.046515   32.498222   12.939896
     59          6           0        6.921748   31.976152   13.851127
     60          8           0        5.848202   32.749225   13.956037
     61          6           0        8.308226   31.486390   11.813355
     62          6           0        7.097304   31.157763   10.913404
     63          6           0        6.090344   32.278419   10.614775
     64          7           0        6.669968   33.539703   10.062413
     65          6           0        6.368079   34.756089   10.740789
     66          7           0        5.971783   34.751595   11.963760
     67          7           0        6.532786   35.859589    9.935502
     68          8           0        6.980559   30.884096   14.388690
     69          1           0        9.561672   33.863811   13.313846
     70          1           0        7.695540   33.418271   12.483054
     71          1           0        8.685798   30.551282   12.239307
     72          1           0        9.110126   31.917247   11.212253
     73          1           0        7.472837   30.733127    9.976628
     74          1           0        6.515395   30.358010   11.386373
     75          1           0        5.361840   31.898623    9.891479
     76          1           0        5.527157   32.536231   11.508924
     77          1           0        6.405791   33.642052    9.084186
     78          1           0        5.863152   35.694441   12.334479
     79          1           0        5.891072   33.531814   13.334994
     80          1           0        7.219627   35.800212    9.193822
     81          1           0        6.542138   36.757322   10.402684
 ---------------------------------------------------------------------

 SCF Done:  E(RB3LYP) =  -2054.02588130     A.U. after    2 cycles

 Alpha  occ. eigenvalues --  -19.33204 -19.27825 -19.27672 -19.23105 -19.23053
 Alpha  occ. eigenvalues --  -19.21891 -19.21865 -19.21381 -14.58962 -14.50627
 Alpha  occ. eigenvalues --  -14.49896 -14.48113 -14.47226 -14.46414 -14.45626
 Alpha  occ. eigenvalues --  -14.43151 -10.45966 -10.42587 -10.41650 -10.41447
 Alpha  occ. eigenvalues --  -10.39365 -10.39129 -10.39014 -10.35922 -10.34483
 Alpha  occ. eigenvalues --  -10.34194 -10.34063 -10.33960 -10.33481 -10.33333
 Alpha  occ. eigenvalues --  -10.33277 -10.32929 -10.31474 -10.30992 -10.30832
 Alpha  occ. eigenvalues --  -10.30763 -10.30734 -10.30645 -10.30298 -10.29989
 Alpha  occ. eigenvalues --  -10.29578 -10.24715  -1.23841  -1.19125  -1.15812
 Alpha  occ. eigenvalues --   -1.15089  -1.14231  -1.13600  -1.13329  -1.11516
 Alpha  occ. eigenvalues --   -1.11049  -1.10056  -1.09832  -1.03854  -1.02693
 Alpha  occ. eigenvalues --   -1.02197  -1.01953  -0.98302  -0.95745  -0.94492
 Alpha  occ. eigenvalues --   -0.92384  -0.91688  -0.88154  -0.87198  -0.85897
 Alpha  occ. eigenvalues --   -0.85306  -0.84872  -0.83626  -0.80362  -0.79169
 Alpha  occ. eigenvalues --   -0.78686  -0.78173  -0.74516  -0.73938  -0.73772
 Alpha  occ. eigenvalues --   -0.73719  -0.72158  -0.71447  -0.71099  -0.70878
 Alpha  occ. eigenvalues --   -0.70092  -0.69356  -0.67992  -0.67724  -0.67565
 Alpha  occ. eigenvalues --   -0.67419  -0.65488  -0.65404  -0.64958  -0.63441
 Alpha  occ. eigenvalues --   -0.63242  -0.62443  -0.61991  -0.60656  -0.60529
 Alpha  occ. eigenvalues --   -0.59845  -0.59569  -0.59234  -0.59081  -0.58890
 Alpha  occ. eigenvalues --   -0.58711  -0.58459  -0.57561  -0.57367  -0.56625
 Alpha  occ. eigenvalues --   -0.56203  -0.55616  -0.55512  -0.54951  -0.54648
 Alpha  occ. eigenvalues --   -0.54166  -0.53937  -0.53642  -0.53538  -0.53146
 Alpha  occ. eigenvalues --   -0.52648  -0.52334  -0.52162  -0.51614  -0.51102
 Alpha  occ. eigenvalues --   -0.50926  -0.50256  -0.49961  -0.49493  -0.49222
 Alpha  occ. eigenvalues --   -0.48736  -0.48565  -0.47949  -0.47770  -0.47432
 Alpha  occ. eigenvalues --   -0.47051  -0.46793  -0.46591  -0.46195  -0.45726
 Alpha  occ. eigenvalues --   -0.45497  -0.45085  -0.44847  -0.44633  -0.44077
 Alpha  occ. eigenvalues --   -0.41616  -0.41135  -0.41002  -0.40179  -0.39791
 Alpha  occ. eigenvalues --   -0.39671  -0.38063  -0.37369  -0.37306  -0.36868
 Alpha  occ. eigenvalues --   -0.36554  -0.35538  -0.34923  -0.34603  -0.34398
 Alpha  occ. eigenvalues --   -0.34073  -0.32593
 Alpha virt. eigenvalues --   -0.13987  -0.13472  -0.11317  -0.10408  -0.10082
 Alpha virt. eigenvalues --   -0.09699  -0.09067  -0.08022  -0.07820  -0.06582
 Alpha virt. eigenvalues --   -0.05937  -0.04225  -0.03225  -0.02759  -0.02485

 Mulliken charges:
               1
     1  N   -0.814866
     2  C   -0.110542
     3  C    0.580417
     4  O   -0.479726
     5  C   -0.340292
     6  C   -0.358204
     7  C    0.579328
     8  O   -0.452556
     9  O   -0.651444
    10  H    0.471112
    11  H    0.429577
    12  H    0.216583
    13  H    0.234028
    14  H    0.225221
    15  H    0.181352
    16  H    0.219922
    17  H    0.424616
    18  H    0.433571
    19  N   -0.564001
    20  C   -0.084019
    21  C    0.655309
    22  O   -0.511721
    23  C   -0.359499
    24  C    0.045517
    25  C   -0.050880
    26  C    0.059091
    27  C    0.260227
    28  C   -0.214162
    29  N   -0.695598
    30  C   -0.170326
    31  C   -0.142398
    32  C   -0.152774
    33  H    0.376384
    34  H    0.125916
    35  H    0.178265
    36  H    0.201544
    37  H    0.207401
    38  H    0.359271
    39  H    0.157049
    40  H    0.154633
    41  H    0.155129
    42  H    0.158416
    43  N   -0.622148
    44  C   -0.056025
    45  C    0.591169
    46  O   -0.522387
    47  C    0.094963
    48  C   -0.455803
    49  O   -0.627418
    50  H    0.428910
    51  H    0.352197
    52  H    0.182555
    53  H    0.143384
    54  H    0.180205
    55  H    0.178082
    56  H    0.155580
    57  N   -0.615250
    58  C   -0.082701
    59  C    0.647343
    60  O   -0.581559
    61  C   -0.297717
    62  C   -0.293274
    63  C   -0.172199
    64  N   -0.683006
    65  C    0.688682
    66  N   -0.697441
    67  N   -0.749348
    68  O   -0.497717
    69  H    0.358736
    70  H    0.189993
    71  H    0.169797
    72  H    0.089184
    73  H    0.151748
    74  H    0.185163
    75  H    0.177941
    76  H    0.208575
    77  H    0.353575
    78  H    0.319851
    79  H    0.470758
    80  H    0.340485
    81  H    0.358246
 Sum of Mulliken charges =   1.00000

 Dipole moment (field-independent basis, Debye):
    X=             43.8287    Y=            154.6516    Z=             43.1745  Tot=            166.4395
 Quadrupole moment (field-independent basis, Debye-Ang):
   XX=            157.8081   YY=           4781.7146   ZZ=            149.5700
   XY=           1396.4552   XZ=            389.6170   YZ=           1394.6689

 Normal termination of Gaussian 16 at Fri May 27 05:11:09 2022.
