 Gaussian 16, Revision C.01,
 Gaussian 16:  ES64L-G16RevC.01  3-Jul-2019

 ----------------------------------------------------------------------
 # B3LYP/6-31G* empiricaldispersion=gd3 guess=read geom=check nosymm in
 tegral(ultrafinegrid)
 ----------------------------------------------------------------------

 ------------------------------------------------------
 Candidate Structure: Conf:669 Charge calc in gas phase
 ------------------------------------------------------
 Structure from the checkpoint file:  "conf-669.chk"
 Charge =  1 Multiplicity = 1

                          Input orientation:
 ---------------------------------------------------------------------
 Center     Atomic      Atomic             Coordinates (Angstroms)
 Number     Number       Type             X           Y           Z
 ---------------------------------------------------------------------
      1          7           0        8.565566   32.823757   13.722392
      2          6           0        8.200215   34.108380   12.991835
      3          6           0        6.794302   34.054558   12.326849
      4          8           0        5.977698   34.866243   12.743886
      5          6           0        9.280554   34.595249   12.008134
      6          6           0       10.482887   35.370485   12.615172
      7          6           0       11.347170   34.532534   13.534570
      8          8           0       12.349641   33.945194   13.213001
      9          8           0       10.848255   34.340773   14.808181
     10          1           0       10.249744   35.069520   15.052190
     11          1           0        8.727221   32.030448   13.091957
     12          1           0        8.056872   34.839824   13.790278
     13          1           0        9.632210   33.796061   11.351745
     14          1           0        8.776858   35.296576   11.335476
     15          1           0       10.113835   36.258224   13.145423
     16          1           0       11.115575   35.711379   11.792906
     17          1           0        9.418866   32.959300   14.282687
     18          1           0        7.800507   32.519002   14.352639
     19          7           0        6.569192   33.265441   11.250572
     20          6           0        7.208929   32.060415   10.748269
     21          6           0        7.050124   32.087086    9.213867
     22          8           0        6.090055   32.678870    8.734465
     23          6           0        6.483141   30.778412   11.264914
     24          6           0        6.571690   30.617191   12.748586
     25          6           0        5.884393   31.328629   13.698515
     26          6           0        7.493531   29.750127   13.457281
     27          6           0        7.326532   30.001458   14.843630
     28          6           0        8.408336   28.765602   13.039273
     29          7           0        6.393793   31.036160   14.971120
     30          6           0        8.026372   29.291516   15.823543
     31          6           0        9.095783   28.047360   14.010794
     32          6           0        8.902622   28.302460   15.385517
     33          1           0        5.712679   33.487116   10.743485
     34          1           0        8.261348   32.044094   11.031700
     35          1           0        6.919822   29.908386   10.763781
     36          1           0        5.442088   30.847256   10.931316
     37          1           0        5.101498   32.065657   13.583792
     38          1           0        5.850199   31.175891   15.814040
     39          1           0        8.598281   28.568499   11.989432
     40          1           0        7.873960   29.483174   16.881938
     41          1           0        9.797399   27.279714   13.698759
     42          1           0        9.446663   27.714122   16.118517
     43          7           0        7.903022   31.329763    8.481813
     44          6           0        9.208561   30.808840    8.873411
     45          6           0       10.142360   31.935280    9.314549
     46          8           0        9.869321   33.113570    9.074387
     47          6           0        9.793888   30.028265    7.633087
     48          6           0       10.209151   30.949903    6.488985
     49          8           0       10.921132   29.266719    7.966100
     50          1           0       10.707873   28.716574    8.746355
     51          1           0        7.736271   31.434635    7.486972
     52          1           0        9.116003   30.075517    9.679475
     53          1           0        8.960516   29.383405    7.302589
     54          1           0       11.058185   31.567064    6.797865
     55          1           0        9.402577   31.612409    6.157935
     56          1           0       10.523166   30.337828    5.639501
     57          7           0       11.356126   31.629378    9.893585
     58          6           0       11.729169   30.757597   11.030867
     59          6           0       11.630167   29.213111   10.884742
     60          8           0       12.686065   28.574939   11.164037
     61          6           0       10.946018   31.196362   12.287200
     62          6           0       11.418355   30.716028   13.682992
     63          6           0       12.866867   30.238038   13.835209
     64          7           0       13.865043   31.218437   13.385232
     65          6           0       14.889345   30.961839   12.553360
     66          7           0       14.924094   29.865619   11.806941
     67          7           0       15.879022   31.884678   12.480458
     68          8           0       10.508065   28.725635   10.615596
     69          1           0       11.872966   32.502959    9.958499
     70          1           0       12.776378   31.005023   11.167613
     71          1           0        9.917606   30.842853   12.127813
     72          1           0       10.945271   32.286063   12.266627
     73          1           0       11.251296   31.525361   14.408293
     74          1           0       10.799015   29.877826   14.011651
     75          1           0       13.053570   30.019779   14.893542
     76          1           0       13.004957   29.315014   13.276638
     77          1           0       13.709257   32.186257   13.648758
     78          1           0       15.778912   29.634121   11.318913
     79          1           0       14.036337   29.322777   11.534499
     80          1           0       16.060192   32.503411   13.257466
     81          1           0       16.595097   31.813672   11.772501
 ---------------------------------------------------------------------

 SCF Done:  E(RB3LYP) =  -2054.00529510     A.U. after    1 cycles

 Alpha  occ. eigenvalues --  -19.35418 -19.29678 -19.23172 -19.20878 -19.20445
 Alpha  occ. eigenvalues --  -19.19538 -19.18215 -19.17429 -14.59461 -14.50119
 Alpha  occ. eigenvalues --  -14.49929 -14.49553 -14.47341 -14.47190 -14.44545
 Alpha  occ. eigenvalues --  -14.44458 -10.47570 -10.45673 -10.41619 -10.40230
 Alpha  occ. eigenvalues --  -10.37953 -10.37656 -10.36049 -10.35118 -10.35043
 Alpha  occ. eigenvalues --  -10.34539 -10.33671 -10.33276 -10.33245 -10.32185
 Alpha  occ. eigenvalues --  -10.31578 -10.31191 -10.30416 -10.30326 -10.30232
 Alpha  occ. eigenvalues --  -10.30093 -10.29651 -10.29627 -10.28944 -10.28465
 Alpha  occ. eigenvalues --  -10.28071 -10.24004  -1.25413  -1.17590  -1.15966
 Alpha  occ. eigenvalues --   -1.14033  -1.13956  -1.13061  -1.12290  -1.11164
 Alpha  occ. eigenvalues --   -1.09187  -1.07894  -1.03807  -1.03675  -1.02747
 Alpha  occ. eigenvalues --   -1.01311  -1.01103  -1.00547  -0.95362  -0.94602
 Alpha  occ. eigenvalues --   -0.91727  -0.90746  -0.88257  -0.86809  -0.84985
 Alpha  occ. eigenvalues --   -0.84081  -0.83934  -0.82670  -0.79373  -0.79065
 Alpha  occ. eigenvalues --   -0.78114  -0.77613  -0.76520  -0.75657  -0.74910
 Alpha  occ. eigenvalues --   -0.72707  -0.72377  -0.71531  -0.70886  -0.70575
 Alpha  occ. eigenvalues --   -0.69884  -0.69205  -0.68019  -0.67561  -0.66578
 Alpha  occ. eigenvalues --   -0.66174  -0.65944  -0.65416  -0.64243  -0.63508
 Alpha  occ. eigenvalues --   -0.62836  -0.62348  -0.61396  -0.61059  -0.60305
 Alpha  occ. eigenvalues --   -0.59983  -0.59304  -0.58879  -0.58314  -0.57923
 Alpha  occ. eigenvalues --   -0.57712  -0.57324  -0.56814  -0.56673  -0.56381
 Alpha  occ. eigenvalues --   -0.55426  -0.55208  -0.55123  -0.54889  -0.54342
 Alpha  occ. eigenvalues --   -0.53573  -0.53364  -0.52791  -0.52557  -0.52208
 Alpha  occ. eigenvalues --   -0.52000  -0.51747  -0.51492  -0.51040  -0.50527
 Alpha  occ. eigenvalues --   -0.50211  -0.49922  -0.49786  -0.48692  -0.48486
 Alpha  occ. eigenvalues --   -0.48368  -0.48075  -0.47669  -0.47163  -0.46815
 Alpha  occ. eigenvalues --   -0.46585  -0.46369  -0.45349  -0.45277  -0.45146
 Alpha  occ. eigenvalues --   -0.44434  -0.44017  -0.43764  -0.43475  -0.42884
 Alpha  occ. eigenvalues --   -0.42601  -0.40554  -0.38972  -0.38874  -0.38202
 Alpha  occ. eigenvalues --   -0.37263  -0.36622  -0.36418  -0.34767  -0.34383
 Alpha  occ. eigenvalues --   -0.33972  -0.33570  -0.33319  -0.32430  -0.31946
 Alpha  occ. eigenvalues --   -0.31667  -0.31196
 Alpha virt. eigenvalues --   -0.15675  -0.12534  -0.11956  -0.10373  -0.10172
 Alpha virt. eigenvalues --   -0.09318  -0.08728  -0.07270  -0.06354  -0.06041
 Alpha virt. eigenvalues --   -0.05560  -0.04503  -0.03770  -0.03233  -0.02794

 Mulliken charges:
               1
     1  N   -0.814477
     2  C   -0.121769
     3  C    0.580626
     4  O   -0.478932
     5  C   -0.326727
     6  C   -0.381566
     7  C    0.588855
     8  O   -0.424887
     9  O   -0.581389
    10  H    0.432051
    11  H    0.427727
    12  H    0.198508
    13  H    0.231820
    14  H    0.236723
    15  H    0.182442
    16  H    0.227091
    17  H    0.420902
    18  H    0.437606
    19  N   -0.565007
    20  C   -0.085454
    21  C    0.649564
    22  O   -0.512968
    23  C   -0.357894
    24  C    0.072941
    25  C   -0.078689
    26  C    0.044192
    27  C    0.261132
    28  C   -0.212794
    29  N   -0.699875
    30  C   -0.173985
    31  C   -0.167704
    32  C   -0.146751
    33  H    0.376441
    34  H    0.123267
    35  H    0.194054
    36  H    0.192336
    37  H    0.197620
    38  H    0.356791
    39  H    0.203556
    40  H    0.148603
    41  H    0.172189
    42  H    0.155591
    43  N   -0.602619
    44  C   -0.099911
    45  C    0.566027
    46  O   -0.525182
    47  C    0.126089
    48  C   -0.463754
    49  O   -0.636785
    50  H    0.431146
    51  H    0.351804
    52  H    0.199078
    53  H    0.137285
    54  H    0.168676
    55  H    0.145348
    56  H    0.180424
    57  N   -0.568640
    58  C   -0.058769
    59  C    0.645911
    60  O   -0.581073
    61  C   -0.333816
    62  C   -0.315136
    63  C   -0.165586
    64  N   -0.608593
    65  C    0.770529
    66  N   -0.776218
    67  N   -0.764744
    68  O   -0.584296
    69  H    0.321840
    70  H    0.134397
    71  H    0.161139
    72  H    0.123831
    73  H    0.124292
    74  H    0.198632
    75  H    0.176854
    76  H    0.223085
    77  H    0.369881
    78  H    0.356702
    79  H    0.447342
    80  H    0.371020
    81  H    0.372031
 Sum of Mulliken charges =   1.00000

 Dipole moment (field-independent basis, Debye):
    X=             55.6127    Y=            158.3855    Z=             70.1173  Tot=            181.9208
 Quadrupole moment (field-independent basis, Debye-Ang):
   XX=            472.2437   YY=           4977.4951   ZZ=            778.5870
   XY=           1840.4594   XZ=            781.3398   YZ=           2303.8560

 Normal termination of Gaussian 16 at Fri May 27 05:10:45 2022.
