 Gaussian 16, Revision C.01,
 Gaussian 16:  ES64L-G16RevC.01  3-Jul-2019

 ----------------------------------------------------------------------
 # B3LYP/6-31G* empiricaldispersion=gd3 guess=read geom=check nosymm in
 tegral(ultrafinegrid)
 ----------------------------------------------------------------------

 ------------------------------------------------------
 Candidate Structure: Conf:472 Charge calc in gas phase
 ------------------------------------------------------
 Structure from the checkpoint file:  "conf-472.chk"
 Charge =  1 Multiplicity = 1

                          Input orientation:
 ---------------------------------------------------------------------
 Center     Atomic      Atomic             Coordinates (Angstroms)
 Number     Number       Type             X           Y           Z
 ---------------------------------------------------------------------
      1          7           0       -1.129658   -5.845115   -3.779516
      2          6           0       -1.896441   -5.594710   -2.504960
      3          6           0       -1.670773   -6.883067   -1.684932
      4          8           0       -1.492503   -7.935973   -2.291598
      5          6           0       -3.386049   -5.405741   -2.799427
      6          1           0       -1.128752   -6.874994   -3.910200
      7          1           0       -1.453333   -4.720421   -2.027556
      8          1           0       -3.935184   -5.254883   -1.865594
      9          1           0       -3.552682   -4.523887   -3.427079
     10          1           0       -3.801587   -6.289691   -3.294391
     11          1           0       -0.135076   -5.506398   -3.665828
     12          1           0       -1.550955   -5.383240   -4.589051
     13          7           0       -1.740868   -6.816908   -0.333782
     14          6           0       -1.833417   -5.635811    0.536230
     15          6           0       -0.479336   -4.883840    0.553786
     16          8           0       -0.214211   -4.095193   -0.356881
     17          6           0       -2.381381   -6.056574    1.900628
     18          1           0       -1.613359   -7.717221    0.117227
     19          1           0       -2.529333   -4.922870    0.085090
     20          1           0       -3.392535   -6.457829    1.790380
     21          1           0       -2.422759   -5.199830    2.578791
     22          1           0       -1.767319   -6.837872    2.366846
     23          7           0        0.388176   -5.158821    1.555248
     24          6           0        1.658773   -4.437498    1.733353
     25          6           0        2.816697   -5.365981    1.305587
     26          8           0        3.426725   -6.028201    2.121946
     27          6           0        1.831686   -4.007393    3.188198
     28          1           0        0.115106   -5.780744    2.305152
     29          1           0        1.598243   -3.560097    1.087533
     30          1           0        0.995704   -3.370859    3.491444
     31          1           0        1.893191   -4.878739    3.846178
     32          1           0        2.761967   -3.445139    3.306190
     33          7           0        3.090214   -5.517459   -0.056069
     34          6           0        2.759921   -4.624655   -1.173924
     35          6           0        1.707123   -5.277208   -2.078069
     36          8           0        1.294932   -4.753615   -3.101532
     37          6           0        4.003040   -4.233423   -1.982532
     38          8           0        1.241285   -6.465058   -1.692337
     39          1           0        1.700548   -6.693270   -0.851636
     40          1           0        3.934256   -6.072135   -0.183068
     41          1           0        2.270104   -3.724481   -0.798611
     42          1           0        4.518476   -5.120789   -2.367230
     43          1           0        3.709951   -3.613528   -2.832801
     44          1           0        4.696396   -3.671118   -1.351743
 ---------------------------------------------------------------------

 SCF Done:  E(RB3LYP) =  -1066.17003754     A.U. after    1 cycles

 Alpha  occ. eigenvalues --  -19.33325 -19.28166 -19.26199 -19.25702 -19.24514
 Alpha  occ. eigenvalues --  -14.57226 -14.50763 -14.50567 -14.49492 -10.45945
 Alpha  occ. eigenvalues --  -10.43641 -10.42913 -10.41809 -10.39079 -10.38298
 Alpha  occ. eigenvalues --  -10.37408 -10.36290 -10.33022 -10.32266 -10.30523
 Alpha  occ. eigenvalues --  -10.29159  -1.24649  -1.18735  -1.17675  -1.16604
 Alpha  occ. eigenvalues --   -1.15963  -1.11984  -1.07140  -1.06370  -1.05291
 Alpha  occ. eigenvalues --   -0.92543  -0.91261  -0.89795  -0.88370  -0.80826
 Alpha  occ. eigenvalues --   -0.79723  -0.78976  -0.77987  -0.74504  -0.73757
 Alpha  occ. eigenvalues --   -0.72966  -0.72126  -0.71117  -0.70544  -0.66953
 Alpha  occ. eigenvalues --   -0.66196  -0.64248  -0.62643  -0.61877  -0.61559
 Alpha  occ. eigenvalues --   -0.60484  -0.60216  -0.59215  -0.58446  -0.57185
 Alpha  occ. eigenvalues --   -0.55963  -0.55115  -0.54991  -0.54081  -0.53726
 Alpha  occ. eigenvalues --   -0.53352  -0.52861  -0.52450  -0.52303  -0.51710
 Alpha  occ. eigenvalues --   -0.51187  -0.50922  -0.50342  -0.50013  -0.49328
 Alpha  occ. eigenvalues --   -0.49135  -0.49000  -0.47460  -0.45420  -0.43308
 Alpha  occ. eigenvalues --   -0.41582  -0.40865  -0.40341  -0.38938  -0.38191
 Alpha  occ. eigenvalues --   -0.36886
 Alpha virt. eigenvalues --   -0.13880  -0.13008  -0.11580  -0.10483  -0.07819
 Alpha virt. eigenvalues --   -0.05863  -0.04096  -0.03336  -0.02773  -0.01762
 Alpha virt. eigenvalues --   -0.01635  -0.00098   0.00377   0.01526   0.01868

 Mulliken charges:
               1
     1  N   -0.772339
     2  C   -0.122356
     3  C    0.655330
     4  O   -0.508734
     5  C   -0.478824
     6  H    0.415203
     7  H    0.245154
     8  H    0.198553
     9  H    0.190759
    10  H    0.196983
    11  H    0.447184
    12  H    0.400098
    13  N   -0.607555
    14  C   -0.063661
    15  C    0.628699
    16  O   -0.529824
    17  C   -0.499081
    18  H    0.356148
    19  H    0.192949
    20  H    0.201997
    21  H    0.197410
    22  H    0.163391
    23  N   -0.600684
    24  C   -0.064344
    25  C    0.600178
    26  O   -0.451112
    27  C   -0.458258
    28  H    0.354700
    29  H    0.196802
    30  H    0.169166
    31  H    0.186069
    32  H    0.189658
    33  N   -0.676772
    34  C   -0.065686
    35  C    0.673542
    36  O   -0.512706
    37  C   -0.467257
    38  O   -0.578164
    39  H    0.443645
    40  H    0.359200
    41  H    0.226872
    42  H    0.171481
    43  H    0.205998
    44  H    0.190189
 Sum of Mulliken charges =   1.00000

 Dipole moment (field-independent basis, Debye):
    X=             -2.5905    Y=            -25.3623    Z=             -5.3827  Tot=             26.0563
 Quadrupole moment (field-independent basis, Debye-Ang):
   XX=            -88.6530   YY=             10.2020   ZZ=            -80.0755
   XY=             20.3362   XZ=              3.0748   YZ=             30.1569

 Normal termination of Gaussian 16 at Sat Jun  4 17:08:28 2022.
