 Gaussian 16, Revision C.01,
 Gaussian 16:  ES64L-G16RevC.01  3-Jul-2019

 ----------------------------------------------------------------------
 # B3LYP/6-31G* empiricaldispersion=gd3 guess=read geom=check nosymm in
 tegral(ultrafinegrid)
 ----------------------------------------------------------------------

 -----------------------------------------------------
 Candidate Structure: Conf:84 Charge calc in gas phase
 -----------------------------------------------------
 Structure from the checkpoint file:  "conf-84.chk"
 Charge =  1 Multiplicity = 1

                          Input orientation:
 ---------------------------------------------------------------------
 Center     Atomic      Atomic             Coordinates (Angstroms)
 Number     Number       Type             X           Y           Z
 ---------------------------------------------------------------------
      1          7           0        3.357890   -4.100679   -1.995401
      2          6           0        2.491089   -3.373606   -0.997861
      3          6           0        1.173477   -3.134874   -1.765984
      4          8           0        1.224801   -3.012993   -2.987023
      5          6           0        3.126136   -2.038795   -0.602469
      6          1           0        3.035278   -3.786915   -2.930884
      7          1           0        2.354485   -4.037548   -0.143963
      8          1           0        4.088900   -2.195125   -0.104439
      9          1           0        3.268695   -1.398863   -1.479500
     10          1           0        2.474623   -1.508116    0.097731
     11          1           0        3.203844   -5.142170   -1.903920
     12          1           0        4.352808   -3.896722   -1.874125
     13          7           0        0.022908   -3.005663   -1.062837
     14          6           0       -0.222860   -3.231826    0.368529
     15          6           0       -0.184609   -4.748879    0.678882
     16          8           0        0.903620   -5.302010    0.856252
     17          6           0       -1.498537   -2.497239    0.783206
     18          1           0       -0.784385   -2.818509   -1.648895
     19          1           0        0.616823   -2.821445    0.936559
     20          1           0       -2.364529   -2.807665    0.184405
     21          1           0       -1.372931   -1.420209    0.642436
     22          1           0       -1.723415   -2.682984    1.837042
     23          7           0       -1.356983   -5.424241    0.698795
     24          6           0       -1.456106   -6.842778    1.078822
     25          6           0       -1.706198   -7.677851   -0.196196
     26          8           0       -2.830685   -7.997834   -0.528324
     27          6           0       -2.588588   -7.051336    2.081552
     28          1           0       -2.230556   -4.925485    0.590041
     29          1           0       -0.498678   -7.098054    1.535656
     30          1           0       -2.635708   -8.101381    2.382672
     31          1           0       -2.417833   -6.438247    2.970910
     32          1           0       -3.554201   -6.797900    1.635100
     33          7           0       -0.624551   -7.976512   -1.028386
     34          6           0        0.808897   -8.009954   -0.712460
     35          6           0        1.534632   -6.863370   -1.427105
     36          8           0        2.742800   -6.698305   -1.359069
     37          6           0        1.443366   -9.359969   -1.069119
     38          8           0        0.777720   -6.028174   -2.138590
     39          1           0       -0.152015   -6.341112   -2.052622
     40          1           0       -0.917549   -8.611816   -1.767787
     41          1           0        0.961065   -7.803877    0.348471
     42          1           0        1.300290   -9.594776   -2.130006
     43          1           0        2.516587   -9.327683   -0.868444
     44          1           0        0.990895  -10.154444   -0.470035
 ---------------------------------------------------------------------

 SCF Done:  E(RB3LYP) =  -1066.17003511     A.U. after    1 cycles

 Alpha  occ. eigenvalues --  -19.33320 -19.28162 -19.26196 -19.25701 -19.24510
 Alpha  occ. eigenvalues --  -14.57228 -14.50757 -14.50568 -14.49493 -10.45941
 Alpha  occ. eigenvalues --  -10.43636 -10.42913 -10.41808 -10.39071 -10.38297
 Alpha  occ. eigenvalues --  -10.37411 -10.36288 -10.33020 -10.32265 -10.30524
 Alpha  occ. eigenvalues --  -10.29160  -1.24644  -1.18731  -1.17675  -1.16601
 Alpha  occ. eigenvalues --   -1.15959  -1.11984  -1.07137  -1.06371  -1.05290
 Alpha  occ. eigenvalues --   -0.92541  -0.91259  -0.89795  -0.88369  -0.80824
 Alpha  occ. eigenvalues --   -0.79722  -0.78973  -0.77987  -0.74500  -0.73756
 Alpha  occ. eigenvalues --   -0.72964  -0.72126  -0.71117  -0.70544  -0.66957
 Alpha  occ. eigenvalues --   -0.66193  -0.64247  -0.62643  -0.61874  -0.61556
 Alpha  occ. eigenvalues --   -0.60484  -0.60216  -0.59213  -0.58446  -0.57184
 Alpha  occ. eigenvalues --   -0.55961  -0.55112  -0.54989  -0.54079  -0.53724
 Alpha  occ. eigenvalues --   -0.53351  -0.52862  -0.52447  -0.52304  -0.51710
 Alpha  occ. eigenvalues --   -0.51184  -0.50921  -0.50338  -0.50011  -0.49328
 Alpha  occ. eigenvalues --   -0.49134  -0.48998  -0.47461  -0.45416  -0.43305
 Alpha  occ. eigenvalues --   -0.41578  -0.40863  -0.40337  -0.38931  -0.38189
 Alpha  occ. eigenvalues --   -0.36887
 Alpha virt. eigenvalues --   -0.13880  -0.13002  -0.11574  -0.10481  -0.07820
 Alpha virt. eigenvalues --   -0.05857  -0.04096  -0.03332  -0.02772  -0.01762
 Alpha virt. eigenvalues --   -0.01636  -0.00100   0.00378   0.01528   0.01870

 Mulliken charges:
               1
     1  N   -0.772257
     2  C   -0.122674
     3  C    0.655413
     4  O   -0.508693
     5  C   -0.478772
     6  H    0.415169
     7  H    0.245361
     8  H    0.190731
     9  H    0.196953
    10  H    0.198535
    11  H    0.447165
    12  H    0.400107
    13  N   -0.607563
    14  C   -0.063607
    15  C    0.628718
    16  O   -0.529888
    17  C   -0.499189
    18  H    0.356158
    19  H    0.192927
    20  H    0.163450
    21  H    0.202021
    22  H    0.197358
    23  N   -0.600709
    24  C   -0.064253
    25  C    0.600171
    26  O   -0.451237
    27  C   -0.458292
    28  H    0.354766
    29  H    0.196778
    30  H    0.189623
    31  H    0.169173
    32  H    0.186123
    33  N   -0.676785
    34  C   -0.065578
    35  C    0.673550
    36  O   -0.512760
    37  C   -0.467328
    38  O   -0.577978
    39  H    0.443606
    40  H    0.359239
    41  H    0.226758
    42  H    0.171499
    43  H    0.205991
    44  H    0.190219
 Sum of Mulliken charges =   1.00000

 Dipole moment (field-independent basis, Debye):
    X=              5.4571    Y=            -22.4495    Z=             -2.0249  Tot=             23.1918
 Quadrupole moment (field-independent basis, Debye-Ang):
   XX=            -89.2850   YY=             15.4984   ZZ=           -114.0779
   XY=            -22.8601   XZ=            -18.8581   YZ=             13.4102

 Normal termination of Gaussian 16 at Sat Jun  4 17:08:24 2022.
