 Gaussian 16, Revision C.01,
 Gaussian 16:  ES64L-G16RevC.01  3-Jul-2019

 ----------------------------------------------------------------------
 # B3LYP/6-31G* empiricaldispersion=gd3 guess=read geom=check nosymm in
 tegral(ultrafinegrid)
 ----------------------------------------------------------------------

 ------------------------------------------------------
 Candidate Structure: Conf:304 Charge calc in gas phase
 ------------------------------------------------------
 Structure from the checkpoint file:  "conf-304.chk"
 Charge =  1 Multiplicity = 1

                          Input orientation:
 ---------------------------------------------------------------------
 Center     Atomic      Atomic             Coordinates (Angstroms)
 Number     Number       Type             X           Y           Z
 ---------------------------------------------------------------------
      1          7           0        3.712618   -4.500266   -1.280264
      2          6           0        2.698795   -3.653882   -0.551527
      3          6           0        1.628402   -3.362118   -1.624925
      4          8           0        1.979553   -3.316709   -2.800945
      5          6           0        3.334128   -2.349630   -0.065104
      6          1           0        3.454533   -5.520541   -1.185253
      7          1           0        2.305298   -4.255117    0.268459
      8          1           0        3.737315   -1.774398   -0.905090
      9          1           0        2.582655   -1.731688    0.434667
     10          1           0        4.132495   -2.548382    0.657720
     11          1           0        4.664185   -4.361120   -0.931978
     12          1           0        3.647843   -4.220857   -2.278031
     13          7           0        0.359357   -3.105137   -1.226903
     14          6           0       -0.238520   -3.228021    0.110227
     15          6           0       -0.407237   -4.722762    0.479733
     16          8           0        0.553080   -5.343163    0.942775
     17          6           0       -1.507661   -2.377148    0.175218
     18          1           0       -0.265647   -2.891694   -1.997626
     19          1           0        0.474087   -2.849011    0.848204
     20          1           0       -1.991828   -2.483570    1.149841
     21          1           0       -2.230126   -2.656520   -0.602521
     22          1           0       -1.259375   -1.322615    0.027199
     23          7           0       -1.602828   -5.307289    0.234675
     24          6           0       -1.914742   -6.688814    0.635275
     25          6           0       -1.920866   -7.578292   -0.627427
     26          8           0       -2.955385   -7.835375   -1.211176
     27          6           0       -3.269879   -6.750962    1.336133
     28          1           0       -2.377198   -4.752026   -0.105559
     29          1           0       -1.122479   -6.987207    1.323663
     30          1           0       -3.480342   -7.774506    1.657881
     31          1           0       -3.266083   -6.100246    2.215082
     32          1           0       -4.072857   -6.452685    0.656266
     33          7           0       -0.699995   -8.002891   -1.157507
     34          6           0        0.606126   -8.124670   -0.497914
     35          6           0        1.579810   -7.080041   -1.056924
     36          8           0        2.745896   -7.002683   -0.702357
     37          6           0        1.188052   -9.537126   -0.634164
     38          8           0        1.092069   -6.232947   -1.963224
     39          1           0        0.145296   -6.469468   -2.095438
     40          1           0       -0.859488   -8.657517   -1.920536
     41          1           0        0.514617   -7.867825    0.558904
     42          1           0        1.285751   -9.823254   -1.687566
     43          1           0        2.179577   -9.573278   -0.177345
     44          1           0        0.536830  -10.258496   -0.133815
 ---------------------------------------------------------------------

 SCF Done:  E(RB3LYP) =  -1066.17003450     A.U. after    2 cycles

 Alpha  occ. eigenvalues --  -19.33335 -19.28177 -19.26206 -19.25706 -19.24518
 Alpha  occ. eigenvalues --  -14.57226 -14.50766 -14.50567 -14.49496 -10.45953
 Alpha  occ. eigenvalues --  -10.43644 -10.42914 -10.41811 -10.39077 -10.38297
 Alpha  occ. eigenvalues --  -10.37419 -10.36291 -10.33025 -10.32269 -10.30528
 Alpha  occ. eigenvalues --  -10.29161  -1.24661  -1.18740  -1.17678  -1.16608
 Alpha  occ. eigenvalues --   -1.15973  -1.11986  -1.07147  -1.06373  -1.05296
 Alpha  occ. eigenvalues --   -0.92545  -0.91263  -0.89801  -0.88372  -0.80830
 Alpha  occ. eigenvalues --   -0.79724  -0.78982  -0.77990  -0.74512  -0.73758
 Alpha  occ. eigenvalues --   -0.72968  -0.72128  -0.71120  -0.70545  -0.66958
 Alpha  occ. eigenvalues --   -0.66200  -0.64252  -0.62650  -0.61878  -0.61558
 Alpha  occ. eigenvalues --   -0.60485  -0.60220  -0.59219  -0.58454  -0.57192
 Alpha  occ. eigenvalues --   -0.55969  -0.55120  -0.54999  -0.54085  -0.53736
 Alpha  occ. eigenvalues --   -0.53355  -0.52862  -0.52453  -0.52303  -0.51709
 Alpha  occ. eigenvalues --   -0.51190  -0.50928  -0.50346  -0.50018  -0.49330
 Alpha  occ. eigenvalues --   -0.49140  -0.49005  -0.47464  -0.45431  -0.43316
 Alpha  occ. eigenvalues --   -0.41588  -0.40866  -0.40347  -0.38945  -0.38194
 Alpha  occ. eigenvalues --   -0.36889
 Alpha virt. eigenvalues --   -0.13877  -0.13014  -0.11585  -0.10494  -0.07821
 Alpha virt. eigenvalues --   -0.05869  -0.04097  -0.03335  -0.02776  -0.01769
 Alpha virt. eigenvalues --   -0.01639  -0.00103   0.00379   0.01518   0.01869

 Mulliken charges:
               1
     1  N   -0.772374
     2  C   -0.122486
     3  C    0.655371
     4  O   -0.508728
     5  C   -0.478940
     6  H    0.447088
     7  H    0.245380
     8  H    0.196936
     9  H    0.198581
    10  H    0.190842
    11  H    0.400118
    12  H    0.415243
    13  N   -0.607646
    14  C   -0.063736
    15  C    0.628719
    16  O   -0.529709
    17  C   -0.499041
    18  H    0.356156
    19  H    0.192964
    20  H    0.197470
    21  H    0.163354
    22  H    0.201995
    23  N   -0.600722
    24  C   -0.064442
    25  C    0.600132
    26  O   -0.451059
    27  C   -0.458157
    28  H    0.354642
    29  H    0.196877
    30  H    0.189683
    31  H    0.169139
    32  H    0.186018
    33  N   -0.676744
    34  C   -0.065766
    35  C    0.673464
    36  O   -0.512566
    37  C   -0.467288
    38  O   -0.578358
    39  H    0.443715
    40  H    0.359227
    41  H    0.226865
    42  H    0.171508
    43  H    0.206040
    44  H    0.190236
 Sum of Mulliken charges =   1.00000

 Dipole moment (field-independent basis, Debye):
    X=              5.4712    Y=            -23.1081    Z=             -1.3142  Tot=             23.7833
 Quadrupole moment (field-independent basis, Debye-Ang):
   XX=            -82.3980   YY=             21.8136   ZZ=           -121.5690
   XY=            -25.1890   XZ=            -11.2830   YZ=             10.3647

 Normal termination of Gaussian 16 at Sat Jun  4 17:08:42 2022.
