 Gaussian 16, Revision C.01,
 Gaussian 16:  ES64L-G16RevC.01  3-Jul-2019

 ----------------------------------------------------------------------
 # B3LYP/6-31G* empiricaldispersion=gd3 guess=read geom=check nosymm in
 tegral(ultrafinegrid)
 ----------------------------------------------------------------------

 ------------------------------------------------------
 Candidate Structure: Conf:879 Charge calc in gas phase
 ------------------------------------------------------
 Structure from the checkpoint file:  "conf-879.chk"
 Charge =  1 Multiplicity = 1

                          Input orientation:
 ---------------------------------------------------------------------
 Center     Atomic      Atomic             Coordinates (Angstroms)
 Number     Number       Type             X           Y           Z
 ---------------------------------------------------------------------
      1          7           0       -0.182970   -2.108865    1.205422
      2          6           0       -0.591145   -3.429077    1.810064
      3          6           0       -1.702807   -3.934197    0.865478
      4          8           0       -2.388199   -3.103155    0.275542
      5          6           0       -1.143854   -3.227860    3.222638
      6          1           0        0.133391   -1.435811    1.907617
      7          1           0        0.286137   -4.076256    1.795634
      8          1           0       -1.463991   -4.187416    3.638688
      9          1           0       -0.377236   -2.818032    3.888757
     10          1           0       -2.011877   -2.560451    3.211142
     11          1           0       -1.024952   -1.751322    0.714566
     12          1           0        0.590583   -2.266287    0.502781
     13          7           0       -1.922533   -5.267521    0.771374
     14          6           0       -1.132323   -6.380971    1.315602
     15          6           0        0.191219   -6.527401    0.524271
     16          8           0        1.151121   -5.808808    0.813677
     17          6           0       -2.008431   -7.632438    1.388530
     18          1           0       -2.692956   -5.502703    0.153835
     19          1           0       -0.811169   -6.119893    2.327939
     20          1           0       -2.845220   -7.464348    2.071997
     21          1           0       -1.430321   -8.485197    1.754903
     22          1           0       -2.431395   -7.895500    0.410359
     23          7           0        0.227715   -7.416667   -0.495013
     24          6           0        1.454198   -7.715516   -1.251955
     25          6           0        1.344721   -7.059742   -2.646118
     26          8           0        0.958012   -7.691104   -3.609932
     27          6           0        1.646303   -9.224222   -1.387498
     28          1           0       -0.567495   -8.016770   -0.671673
     29          1           0        2.274285   -7.283235   -0.676445
     30          1           0        1.698498   -9.684660   -0.396906
     31          1           0        0.829277   -9.669734   -1.961914
     32          1           0        2.574738   -9.438519   -1.923731
     33          7           0        1.597820   -5.691185   -2.768093
     34          6           0        2.375662   -4.808972   -1.889152
     35          6           0        1.446645   -3.813206   -1.183971
     36          8           0        1.855527   -2.942848   -0.431067
     37          6           0        3.483920   -4.071931   -2.651249
     38          8           0        0.141682   -3.940429   -1.423938
     39          1           0        0.037875   -4.696704   -2.046125
     40          1           0        1.587085   -5.420339   -3.749283
     41          1           0        2.815295   -5.388205   -1.075288
     42          1           0        4.004425   -3.388980   -1.976138
     43          1           0        4.200749   -4.791571   -3.055099
     44          1           0        3.069991   -3.485503   -3.479403
 ---------------------------------------------------------------------

 SCF Done:  E(RB3LYP) =  -1066.17003469     A.U. after    1 cycles

 Alpha  occ. eigenvalues --  -19.33324 -19.28170 -19.26198 -19.25703 -19.24516
 Alpha  occ. eigenvalues --  -14.57228 -14.50761 -14.50567 -14.49494 -10.45947
 Alpha  occ. eigenvalues --  -10.43639 -10.42912 -10.41810 -10.39078 -10.38298
 Alpha  occ. eigenvalues --  -10.37413 -10.36291 -10.33023 -10.32268 -10.30524
 Alpha  occ. eigenvalues --  -10.29160  -1.24650  -1.18734  -1.17676  -1.16606
 Alpha  occ. eigenvalues --   -1.15965  -1.11985  -1.07141  -1.06372  -1.05291
 Alpha  occ. eigenvalues --   -0.92543  -0.91261  -0.89796  -0.88370  -0.80827
 Alpha  occ. eigenvalues --   -0.79722  -0.78977  -0.77988  -0.74502  -0.73755
 Alpha  occ. eigenvalues --   -0.72966  -0.72127  -0.71119  -0.70545  -0.66954
 Alpha  occ. eigenvalues --   -0.66196  -0.64249  -0.62645  -0.61877  -0.61558
 Alpha  occ. eigenvalues --   -0.60483  -0.60218  -0.59214  -0.58451  -0.57186
 Alpha  occ. eigenvalues --   -0.55964  -0.55117  -0.54994  -0.54082  -0.53729
 Alpha  occ. eigenvalues --   -0.53353  -0.52862  -0.52450  -0.52301  -0.51709
 Alpha  occ. eigenvalues --   -0.51188  -0.50923  -0.50343  -0.50013  -0.49327
 Alpha  occ. eigenvalues --   -0.49136  -0.49002  -0.47462  -0.45422  -0.43310
 Alpha  occ. eigenvalues --   -0.41582  -0.40866  -0.40340  -0.38941  -0.38190
 Alpha  occ. eigenvalues --   -0.36887
 Alpha virt. eigenvalues --   -0.13879  -0.13009  -0.11581  -0.10485  -0.07821
 Alpha virt. eigenvalues --   -0.05864  -0.04091  -0.03336  -0.02774  -0.01764
 Alpha virt. eigenvalues --   -0.01637  -0.00098   0.00375   0.01524   0.01868

 Mulliken charges:
               1
     1  N   -0.772273
     2  C   -0.122582
     3  C    0.655572
     4  O   -0.508753
     5  C   -0.478813
     6  H    0.400103
     7  H    0.245233
     8  H    0.198561
     9  H    0.190762
    10  H    0.196961
    11  H    0.415176
    12  H    0.447163
    13  N   -0.607593
    14  C   -0.063694
    15  C    0.628720
    16  O   -0.529800
    17  C   -0.499114
    18  H    0.356142
    19  H    0.192928
    20  H    0.202005
    21  H    0.197415
    22  H    0.163383
    23  N   -0.600756
    24  C   -0.064375
    25  C    0.600165
    26  O   -0.451053
    27  C   -0.458197
    28  H    0.354703
    29  H    0.196860
    30  H    0.169147
    31  H    0.186023
    32  H    0.189685
    33  N   -0.676822
    34  C   -0.065711
    35  C    0.673474
    36  O   -0.512717
    37  C   -0.467264
    38  O   -0.578110
    39  H    0.443652
    40  H    0.359225
    41  H    0.226863
    42  H    0.205995
    43  H    0.190204
    44  H    0.171508
 Sum of Mulliken charges =   1.00000

 Dipole moment (field-independent basis, Debye):
    X=              0.5942    Y=            -23.0985    Z=              2.9342  Tot=             23.2917
 Quadrupole moment (field-independent basis, Debye-Ang):
   XX=           -108.4165   YY=             23.7495   ZZ=           -102.2766
   XY=              2.0964   XZ=            -16.9691   YZ=             -9.1358

 Normal termination of Gaussian 16 at Sat Jun  4 17:08:22 2022.
