 Gaussian 16, Revision C.01,
 Gaussian 16:  ES64L-G16RevC.01  3-Jul-2019

 ----------------------------------------------------------------------
 # B3LYP/6-31G* empiricaldispersion=gd3 guess=read geom=check nosymm in
 tegral(ultrafinegrid)
 ----------------------------------------------------------------------

 ------------------------------------------------------
 Candidate Structure: Conf:879 Charge calc in gas phase
 ------------------------------------------------------
 Structure from the checkpoint file:  "conf-879.chk"
 Charge =  1 Multiplicity = 1

                          Input orientation:
 ---------------------------------------------------------------------
 Center     Atomic      Atomic             Coordinates (Angstroms)
 Number     Number       Type             X           Y           Z
 ---------------------------------------------------------------------
      1          7           0       -1.543062   12.976928   -6.326267
      2          6           0       -2.825838   13.661998   -5.962256
      3          6           0       -3.510623   12.660470   -5.002681
      4          8           0       -2.801885   11.970478   -4.273690
      5          6           0       -3.604552   14.047886   -7.229607
      6          6           0       -2.774366   14.866934   -8.195226
      7          6           0       -2.358118   16.160641   -7.854920
      8          6           0       -2.383234   14.327336   -9.426940
      9          6           0       -1.561281   16.900434   -8.729423
     10          6           0       -1.592798   15.069759  -10.305368
     11          6           0       -1.174998   16.353978   -9.955161
     12          1           0       -1.122539   12.594420   -5.469716
     13          1           0       -0.841084   13.562882   -6.840832
     14          1           0       -2.554698   14.559111   -5.396097
     15          1           0       -4.485517   14.623317   -6.916957
     16          1           0       -3.957923   13.134545   -7.719920
     17          1           0       -2.669718   16.599514   -6.908783
     18          1           0       -2.708614   13.325727   -9.701278
     19          1           0       -1.251164   17.905490   -8.457788
     20          1           0       -1.285410   14.642999  -11.254225
     21          1           0       -0.549785   16.923197  -10.635882
     22          1           0       -1.752296   12.135439   -6.907780
     23          7           0       -4.854023   12.527852   -5.069033
     24          6           0       -5.535287   11.425353   -4.373696
     25          6           0       -4.932481   10.065080   -4.780520
     26          8           0       -4.901435    9.123237   -4.002837
     27          6           0       -7.045007   11.504220   -4.660531
     28          6           0       -7.896561   10.383454   -4.031704
     29          6           0       -7.719061   10.302195   -2.508832
     30          6           0       -9.369518   10.595798   -4.409540
     31          1           0       -5.397764   13.116849   -5.684457
     32          1           0       -5.340040   11.511978   -3.302873
     33          1           0       -7.406061   12.475391   -4.292539
     34          1           0       -7.193316   11.497113   -5.750776
     35          1           0       -7.566308    9.427540   -4.459984
     36          1           0       -6.705935    9.989090   -2.240696
     37          1           0       -7.928727   11.270809   -2.035944
     38          1           0       -8.413713    9.570132   -2.083173
     39          1           0       -9.752682   11.531447   -3.982710
     40          1           0       -9.508101   10.640478   -5.496705
     41          1           0       -9.989288    9.778790   -4.025397
     42          7           0       -4.472819    9.974994   -6.067565
     43          6           0       -3.482779    8.969273   -6.396037
     44          6           0       -2.461138    9.623232   -7.358148
     45          8           0       -2.588769   10.824100   -7.691675
     46          6           0       -4.152048    7.667745   -6.915043
     47          6           0       -3.337525    6.413783   -6.611784
     48          7           0       -4.039680    5.316285   -6.265218
     49          8           0       -2.103340    6.391754   -6.698436
     50          1           0       -4.388438   10.823339   -6.612481
     51          1           0       -2.939733    8.717910   -5.475440
     52          1           0       -5.132275    7.609157   -6.435815
     53          1           0       -4.320244    7.718987   -7.998044
     54          1           0       -3.530437    4.470229   -6.043836
     55          1           0       -5.031694    5.340019   -6.081650
     56          7           0       -1.471863    8.823272   -7.757424
     57          6           0       -0.328127    9.211358   -8.577038
     58          6           0        0.629894   10.092026   -7.763097
     59          8           0        0.320715   10.868360   -6.876174
     60          6           0       -0.766053    9.778809   -9.962217
     61          6           0        0.351321   10.389633  -10.840131
     62          6           0        0.390015   11.925258  -10.800202
     63          7           0        0.420176   12.408892   -9.424400
     64          6           0        1.027391   13.599169   -9.075645
     65          7           0        1.626298   14.335857   -9.927252
     66          7           0        0.880374   13.833104   -7.662682
     67          8           0        1.896591    9.862290   -8.132166
     68          1           0        2.480176   10.455529   -7.622462
     69          1           0       -1.502993    7.856646   -7.388439
     70          1           0        0.228354    8.290019   -8.769585
     71          1           0       -1.566703   10.505511   -9.802008
     72          1           0       -1.228216    8.929381  -10.475323
     73          1           0        1.327982    9.991336  -10.547786
     74          1           0        0.189609   10.088825  -11.880954
     75          1           0        1.278823   12.307811  -11.304624
     76          1           0       -0.481497   12.336320  -11.332300
     77          1           0       -0.423115   12.219155   -8.899083
     78          1           0        2.123583   15.109560   -9.486530
     79          1           0        1.351453   14.688623   -7.380909
     80          1           0        1.252932   13.043063   -7.133677
 ---------------------------------------------------------------------

 SCF Done:  E(RB3LYP) =  -1866.73100821     A.U. after    3 cycles

 Alpha  occ. eigenvalues --  -19.31391 -19.26164 -19.24979 -19.24258 -19.22763
 Alpha  occ. eigenvalues --  -19.21120 -14.53769 -14.48745 -14.47295 -14.46346
 Alpha  occ. eigenvalues --  -14.46153 -14.45287 -14.44200 -14.38629 -10.44293
 Alpha  occ. eigenvalues --  -10.41610 -10.41516 -10.40210 -10.38227 -10.38021
 Alpha  occ. eigenvalues --  -10.37885 -10.35607 -10.34664 -10.33510 -10.32262
 Alpha  occ. eigenvalues --  -10.30716 -10.30464 -10.30234 -10.29691 -10.28943
 Alpha  occ. eigenvalues --  -10.28890 -10.28597 -10.28544 -10.28333 -10.28140
 Alpha  occ. eigenvalues --  -10.27960 -10.26954 -10.24528 -10.23933  -1.22549
 Alpha  occ. eigenvalues --   -1.16856  -1.16051  -1.14292  -1.13478  -1.13081
 Alpha  occ. eigenvalues --   -1.09453  -1.07472  -1.05079  -1.04528  -1.02231
 Alpha  occ. eigenvalues --   -1.01140  -0.98899  -0.95828  -0.94511  -0.91568
 Alpha  occ. eigenvalues --   -0.90805  -0.89637  -0.88027  -0.85230  -0.84646
 Alpha  occ. eigenvalues --   -0.84147  -0.82879  -0.79133  -0.78247  -0.77724
 Alpha  occ. eigenvalues --   -0.75527  -0.74938  -0.73392  -0.71795  -0.71347
 Alpha  occ. eigenvalues --   -0.70497  -0.69903  -0.69253  -0.68794  -0.68462
 Alpha  occ. eigenvalues --   -0.67933  -0.67360  -0.66938  -0.65575  -0.64430
 Alpha  occ. eigenvalues --   -0.64091  -0.63069  -0.62977  -0.61915  -0.61581
 Alpha  occ. eigenvalues --   -0.61335  -0.60762  -0.59820  -0.59214  -0.58605
 Alpha  occ. eigenvalues --   -0.58453  -0.58113  -0.57070  -0.56249  -0.56046
 Alpha  occ. eigenvalues --   -0.55870  -0.55428  -0.55281  -0.55038  -0.54384
 Alpha  occ. eigenvalues --   -0.54252  -0.53390  -0.52687  -0.52336  -0.52129
 Alpha  occ. eigenvalues --   -0.51854  -0.51469  -0.51055  -0.50822  -0.50777
 Alpha  occ. eigenvalues --   -0.50476  -0.50188  -0.49970  -0.49659  -0.49073
 Alpha  occ. eigenvalues --   -0.48555  -0.48112  -0.47568  -0.47372  -0.46497
 Alpha  occ. eigenvalues --   -0.45467  -0.45378  -0.45285  -0.45019  -0.44659
 Alpha  occ. eigenvalues --   -0.44148  -0.44064  -0.43949  -0.43731  -0.42703
 Alpha  occ. eigenvalues --   -0.40967  -0.40701  -0.40357  -0.40115  -0.39018
 Alpha  occ. eigenvalues --   -0.38682  -0.38391  -0.38203  -0.37874  -0.37312
 Alpha  occ. eigenvalues --   -0.36759  -0.35433  -0.35396  -0.34798  -0.34296
 Alpha  occ. eigenvalues --   -0.34127  -0.32268
 Alpha virt. eigenvalues --   -0.12175  -0.11358  -0.10101  -0.09978  -0.09880
 Alpha virt. eigenvalues --   -0.08293  -0.07349  -0.05655  -0.05062  -0.04001
 Alpha virt. eigenvalues --   -0.02796  -0.02251  -0.01962  -0.01349  -0.00465

 Mulliken charges:
               1
     1  N   -0.826969
     2  C   -0.092972
     3  C    0.638359
     4  O   -0.515038
     5  C   -0.401941
     6  C    0.145692
     7  C   -0.187442
     8  C   -0.211167
     9  C   -0.135501
    10  C   -0.112785
    11  C   -0.121072
    12  H    0.406633
    13  H    0.441898
    14  H    0.212987
    15  H    0.178649
    16  H    0.186405
    17  H    0.134468
    18  H    0.142228
    19  H    0.154926
    20  H    0.161007
    21  H    0.160826
    22  H    0.465339
    23  N   -0.653800
    24  C   -0.014267
    25  C    0.622634
    26  O   -0.512374
    27  C   -0.308587
    28  C   -0.076536
    29  C   -0.462170
    30  C   -0.446512
    31  H    0.351281
    32  H    0.210002
    33  H    0.156037
    34  H    0.136259
    35  H    0.142036
    36  H    0.175019
    37  H    0.140232
    38  H    0.157568
    39  H    0.149021
    40  H    0.140966
    41  H    0.160029
    42  N   -0.618312
    43  C   -0.047500
    44  C    0.621532
    45  O   -0.616907
    46  C   -0.376999
    47  C    0.637775
    48  N   -0.731676
    49  O   -0.535737
    50  H    0.345112
    51  H    0.220546
    52  H    0.192348
    53  H    0.192538
    54  H    0.367261
    55  H    0.362226
    56  N   -0.612705
    57  C   -0.059661
    58  C    0.632971
    59  O   -0.517171
    60  C   -0.300936
    61  C   -0.288483
    62  C   -0.135644
    63  N   -0.615661
    64  C    0.586486
    65  N   -0.618106
    66  N   -0.818024
    67  O   -0.534830
    68  H    0.422929
    69  H    0.417143
    70  H    0.204213
    71  H    0.176739
    72  H    0.172608
    73  H    0.175118
    74  H    0.164098
    75  H    0.203695
    76  H    0.144837
    77  H    0.329212
    78  H    0.283776
    79  H    0.337440
    80  H    0.346382
 Sum of Mulliken charges =   1.00000

 Dipole moment (field-independent basis, Debye):
    X=            -12.0193    Y=             55.7512    Z=            -35.0357  Tot=             66.9339
 Quadrupole moment (field-independent basis, Debye-Ang):
   XX=           -142.5496   YY=            492.8547   ZZ=             29.3897
   XY=           -117.9694   XZ=             76.8698   YZ=           -396.1347

 Normal termination of Gaussian 16 at Sat Jun 11 21:07:54 2022.
