 Gaussian 16, Revision C.01,
 Gaussian 16:  ES64L-G16RevC.01  3-Jul-2019

 ----------------------------------------------------------------------
 # B3LYP/6-31G* empiricaldispersion=gd3 guess=read geom=check nosymm in
 tegral(ultrafinegrid)
 ----------------------------------------------------------------------

 ------------------------------------------------------
 Candidate Structure: Conf:418 Charge calc in gas phase
 ------------------------------------------------------
 Structure from the checkpoint file:  "conf-418.chk"
 Charge =  1 Multiplicity = 1

                          Input orientation:
 ---------------------------------------------------------------------
 Center     Atomic      Atomic             Coordinates (Angstroms)
 Number     Number       Type             X           Y           Z
 ---------------------------------------------------------------------
      1          7           0       -4.887110   11.130673   -6.728446
      2          6           0       -5.033851   12.552607   -6.270288
      3          6           0       -4.668398   13.375855   -7.525585
      4          8           0       -4.825403   12.867528   -8.634157
      5          6           0       -4.163789   12.770059   -5.013373
      6          6           0       -4.343794   11.639039   -4.020524
      7          6           0       -5.497193   11.560222   -3.228991
      8          6           0       -3.403339   10.598438   -3.962850
      9          6           0       -5.707199   10.459044   -2.395944
     10          6           0       -3.612231    9.497090   -3.130043
     11          6           0       -4.770074    9.424572   -2.352239
     12          1           0       -5.303425   11.010959   -7.662417
     13          1           0       -5.261705   10.452731   -6.059942
     14          1           0       -6.092547   12.701930   -6.034004
     15          1           0       -4.447853   13.729125   -4.564218
     16          1           0       -3.115613   12.837718   -5.322064
     17          1           0       -6.229264   12.365201   -3.256269
     18          1           0       -2.502488   10.655372   -4.571698
     19          1           0       -6.602084   10.411186   -1.782282
     20          1           0       -2.886095    8.691262   -3.102571
     21          1           0       -4.937414    8.559849   -1.718130
     22          1           0       -3.875339   10.935488   -6.855379
     23          7           0       -4.134629   14.601426   -7.340805
     24          6           0       -3.649306   15.391827   -8.484178
     25          6           0       -2.623040   14.589408   -9.309008
     26          8           0       -2.576438   14.677711  -10.522748
     27          6           0       -3.068340   16.720692   -7.970944
     28          6           0       -2.464717   17.634289   -9.056556
     29          6           0       -3.472440   17.963232  -10.167439
     30          6           0       -1.925278   18.912333   -8.398648
     31          1           0       -4.054039   14.992264   -6.411467
     32          1           0       -4.482768   15.570215   -9.166753
     33          1           0       -3.873594   17.263444   -7.454985
     34          1           0       -2.296373   16.497532   -7.219765
     35          1           0       -1.619693   17.101807   -9.514218
     36          1           0       -3.045532   18.692708  -10.863746
     37          1           0       -3.737754   17.073698  -10.746283
     38          1           0       -4.388646   18.401396   -9.749942
     39          1           0       -1.435418   19.551617   -9.140423
     40          1           0       -2.738752   19.493189   -7.945682
     41          1           0       -1.193858   18.687699   -7.612750
     42          7           0       -1.741854   13.824941   -8.571881
     43          6           0       -1.093850   12.686582   -9.193202
     44          6           0       -1.656937   11.405739   -8.543408
     45          8           0       -2.237157   11.451313   -7.442362
     46          6           0        0.449425   12.770753   -9.096923
     47          6           0        1.164327   11.965325  -10.183651
     48          7           0        2.433514   12.338029  -10.447921
     49          8           0        0.628495   11.023663  -10.778101
     50          1           0       -1.979095   13.681254   -7.598053
     51          1           0       -1.371072   12.701121  -10.251675
     52          1           0        0.718670   13.828678   -9.179245
     53          1           0        0.802589   12.431996   -8.113788
     54          1           0        2.944670   11.836150  -11.162753
     55          1           0        2.865663   13.148304  -10.028732
     56          7           0       -1.505111   10.266583   -9.247115
     57          6           0       -1.802228    8.954732   -8.651681
     58          6           0       -3.276365    8.954048   -8.212210
     59          8           0       -3.688730    8.527967   -7.154471
     60          6           0       -0.851096    8.572608   -7.508238
     61          6           0       -0.846905    7.065373   -7.159608
     62          6           0       -0.739792    6.817415   -5.644808
     63          7           0       -1.991831    7.118098   -4.953057
     64          6           0       -2.902540    6.074769   -4.753607
     65          7           0       -2.491487    4.864473   -4.667058
     66          7           0       -4.215892    6.545194   -4.562952
     67          8           0       -4.149027    9.512372   -9.077785
     68          1           0       -3.673304    9.915411   -9.829205
     69          1           0       -0.817323   10.324155  -10.014520
     70          1           0       -1.713466    8.227022   -9.468205
     71          1           0       -1.120484    9.181341   -6.639036
     72          1           0        0.155035    8.888219   -7.805384
     73          1           0       -1.765056    6.579612   -7.511110
     74          1           0       -0.014577    6.577100   -7.679883
     75          1           0       -0.509296    5.771255   -5.439917
     76          1           0        0.065162    7.429875   -5.217996
     77          1           0       -2.439674    7.960762   -5.291648
     78          1           0       -3.259174    4.216685   -4.491414
     79          1           0       -4.900977    5.798649   -4.548865
     80          1           0       -4.491471    7.270533   -5.218180
 ---------------------------------------------------------------------

 SCF Done:  E(RB3LYP) =  -1866.71289972     A.U. after    3 cycles

 Alpha  occ. eigenvalues --  -19.32633 -19.27303 -19.27007 -19.25580 -19.24018
 Alpha  occ. eigenvalues --  -19.22248 -14.56751 -14.49984 -14.49199 -14.47457
 Alpha  occ. eigenvalues --  -14.46650 -14.41225 -14.40803 -14.34348 -10.45493
 Alpha  occ. eigenvalues --  -10.43061 -10.42995 -10.41563 -10.39416 -10.39409
 Alpha  occ. eigenvalues --  -10.36848 -10.35850 -10.34527 -10.34159 -10.33280
 Alpha  occ. eigenvalues --  -10.32320 -10.30944 -10.29614 -10.29514 -10.29447
 Alpha  occ. eigenvalues --  -10.29427 -10.28938 -10.28444 -10.28386 -10.28161
 Alpha  occ. eigenvalues --  -10.27669 -10.27234 -10.25112 -10.24559  -1.23614
 Alpha  occ. eigenvalues --   -1.18446  -1.17880  -1.15541  -1.15159  -1.14285
 Alpha  occ. eigenvalues --   -1.11987  -1.06264  -1.06100  -1.03721  -1.03531
 Alpha  occ. eigenvalues --   -1.02320  -0.96425  -0.95295  -0.92624  -0.91589
 Alpha  occ. eigenvalues --   -0.90516  -0.90231  -0.89032  -0.86123  -0.84552
 Alpha  occ. eigenvalues --   -0.83922  -0.83732  -0.79823  -0.78614  -0.76682
 Alpha  occ. eigenvalues --   -0.76175  -0.75452  -0.74216  -0.73182  -0.72479
 Alpha  occ. eigenvalues --   -0.71893  -0.70920  -0.70206  -0.69906  -0.69609
 Alpha  occ. eigenvalues --   -0.69193  -0.68806  -0.67545  -0.65707  -0.64986
 Alpha  occ. eigenvalues --   -0.64891  -0.64238  -0.63893  -0.61914  -0.61456
 Alpha  occ. eigenvalues --   -0.61268  -0.60525  -0.59781  -0.59462  -0.59161
 Alpha  occ. eigenvalues --   -0.59027  -0.58054  -0.57373  -0.57246  -0.56402
 Alpha  occ. eigenvalues --   -0.56289  -0.56089  -0.55738  -0.55114  -0.55079
 Alpha  occ. eigenvalues --   -0.54487  -0.53758  -0.53430  -0.53044  -0.52602
 Alpha  occ. eigenvalues --   -0.52042  -0.51820  -0.51649  -0.51403  -0.51121
 Alpha  occ. eigenvalues --   -0.50759  -0.50492  -0.49850  -0.49638  -0.49594
 Alpha  occ. eigenvalues --   -0.49071  -0.48515  -0.48371  -0.47448  -0.46475
 Alpha  occ. eigenvalues --   -0.46287  -0.46037  -0.45905  -0.45264  -0.44825
 Alpha  occ. eigenvalues --   -0.44448  -0.44181  -0.43772  -0.43505  -0.42507
 Alpha  occ. eigenvalues --   -0.41680  -0.41491  -0.41071  -0.40846  -0.40643
 Alpha  occ. eigenvalues --   -0.39873  -0.39536  -0.39208  -0.38647  -0.38087
 Alpha  occ. eigenvalues --   -0.36754  -0.35325  -0.35266  -0.34893  -0.33481
 Alpha  occ. eigenvalues --   -0.31053  -0.28601
 Alpha virt. eigenvalues --   -0.13156  -0.12937  -0.12024  -0.10668  -0.10421
 Alpha virt. eigenvalues --   -0.09520  -0.08530  -0.06244  -0.04886  -0.03880
 Alpha virt. eigenvalues --   -0.03184  -0.02829  -0.01813  -0.01344  -0.00742

 Mulliken charges:
               1
     1  N   -0.778233
     2  C   -0.104223
     3  C    0.661695
     4  O   -0.527309
     5  C   -0.396752
     6  C    0.123025
     7  C   -0.191079
     8  C   -0.226128
     9  C   -0.128336
    10  C   -0.131273
    11  C   -0.124302
    12  H    0.426248
    13  H    0.411777
    14  H    0.222466
    15  H    0.180281
    16  H    0.187241
    17  H    0.137937
    18  H    0.147185
    19  H    0.160493
    20  H    0.195569
    21  H    0.168463
    22  H    0.462241
    23  N   -0.656440
    24  C   -0.017233
    25  C    0.618435
    26  O   -0.492457
    27  C   -0.309092
    28  C   -0.080401
    29  C   -0.463225
    30  C   -0.446740
    31  H    0.352476
    32  H    0.210385
    33  H    0.156655
    34  H    0.137351
    35  H    0.145527
    36  H    0.161432
    37  H    0.174907
    38  H    0.141190
    39  H    0.162900
    40  H    0.150186
    41  H    0.141022
    42  N   -0.602198
    43  C   -0.069484
    44  C    0.622352
    45  O   -0.589139
    46  C   -0.390211
    47  C    0.635707
    48  N   -0.732775
    49  O   -0.534157
    50  H    0.338999
    51  H    0.224999
    52  H    0.199911
    53  H    0.194299
    54  H    0.370659
    55  H    0.361254
    56  N   -0.650529
    57  C   -0.079449
    58  C    0.628892
    59  O   -0.485472
    60  C   -0.275712
    61  C   -0.281956
    62  C   -0.154131
    63  N   -0.596899
    64  C    0.576904
    65  N   -0.637043
    66  N   -0.767324
    67  O   -0.574201
    68  H    0.444009
    69  H    0.411892
    70  H    0.207198
    71  H    0.163317
    72  H    0.159186
    73  H    0.158818
    74  H    0.157819
    75  H    0.215156
    76  H    0.141433
    77  H    0.322160
    78  H    0.275301
    79  H    0.322955
    80  H    0.323596
 Sum of Mulliken charges =   1.00000

 Dipole moment (field-independent basis, Debye):
    X=            -12.7735    Y=             60.3017    Z=            -34.9455  Tot=             70.8565
 Quadrupole moment (field-independent basis, Debye-Ang):
   XX=           -127.6670   YY=            553.4558   ZZ=             35.0563
   XY=           -143.2347   XZ=             50.7008   YZ=           -426.1612

 Normal termination of Gaussian 16 at Sat Jun 11 21:07:44 2022.
