 Gaussian 16, Revision C.01,
 Gaussian 16:  ES64L-G16RevC.01  3-Jul-2019

 ----------------------------------------------------------------------
 # B3LYP/6-31G* empiricaldispersion=gd3 guess=read geom=check nosymm in
 tegral(ultrafinegrid)
 ----------------------------------------------------------------------

 ------------------------------------------------------
 Candidate Structure: Conf:611 Charge calc in gas phase
 ------------------------------------------------------
 Structure from the checkpoint file:  "conf-611.chk"
 Charge =  1 Multiplicity = 1

                          Input orientation:
 ---------------------------------------------------------------------
 Center     Atomic      Atomic             Coordinates (Angstroms)
 Number     Number       Type             X           Y           Z
 ---------------------------------------------------------------------
      1          7           0       -1.768104   11.844882   -4.911808
      2          6           0       -3.043310   12.335435   -4.292756
      3          6           0       -4.065254   11.234267   -4.661732
      4          8           0       -3.659238   10.085685   -4.822001
      5          6           0       -3.352104   13.765791   -4.784781
      6          6           0       -2.112756   14.637525   -4.788462
      7          6           0       -1.582927   15.147418   -3.595333
      8          6           0       -1.428880   14.864385   -5.991436
      9          6           0       -0.391073   15.874290   -3.605846
     10          6           0       -0.235311   15.589089   -6.001359
     11          6           0        0.286236   16.093601   -4.808383
     12          1           0       -1.648295   10.843893   -4.714930
     13          1           0       -0.945640   12.374765   -4.615392
     14          1           0       -2.889738   12.330440   -3.208382
     15          1           0       -4.121004   14.189369   -4.127607
     16          1           0       -3.761976   13.707407   -5.796652
     17          1           0       -2.109455   14.987085   -2.656509
     18          1           0       -1.835083   14.468369   -6.918435
     19          1           0        0.005375   16.273625   -2.676952
     20          1           0        0.281841   15.762397   -6.940927
     21          1           0        1.212331   16.660609   -4.814697
     22          1           0       -1.845617   11.907506   -5.953914
     23          7           0       -5.351732   11.599351   -4.847720
     24          6           0       -6.335347   10.642896   -5.381892
     25          6           0       -5.868158   10.068468   -6.736880
     26          8           0       -6.103653    8.914380   -7.051038
     27          6           0       -7.705653   11.333887   -5.486841
     28          6           0       -8.832396   10.469890   -6.087540
     29          6           0       -9.032066    9.156259   -5.318042
     30          6           0      -10.129235   11.290471   -6.133361
     31          1           0       -5.642157   12.554851   -4.689325
     32          1           0       -6.384305    9.782662   -4.711517
     33          1           0       -8.000207   11.654025   -4.477015
     34          1           0       -7.591499   12.244407   -6.093891
     35          1           0       -8.550424   10.216562   -7.118570
     36          1           0       -9.209638    9.348369   -4.251550
     37          1           0       -9.902880    8.616918   -5.705731
     38          1           0       -8.165196    8.496920   -5.419486
     39          1           0       -9.999879   12.224266   -6.694122
     40          1           0      -10.931581   10.719612   -6.612372
     41          1           0      -10.465166   11.549449   -5.121167
     42          7           0       -5.226493   10.961293   -7.563979
     43          6           0       -4.315933   10.472655   -8.582679
     44          6           0       -2.923164   11.084628   -8.289044
     45          8           0       -2.803240   11.953820   -7.397625
     46          6           0       -4.838802   10.750150  -10.014584
     47          6           0       -4.329506    9.738710  -11.041196
     48          7           0       -5.115203    9.552623  -12.123359
     49          8           0       -3.259557    9.136154  -10.906335
     50          1           0       -4.915917   11.825385   -7.137030
     51          1           0       -4.241761    9.386555   -8.458424
     52          1           0       -5.931818   10.721601   -9.969887
     53          1           0       -4.561030   11.758354  -10.348683
     54          1           0       -4.816880    8.888900  -12.826298
     55          1           0       -6.029684    9.969627  -12.214259
     56          7           0       -1.915137   10.617607   -9.026052
     57          6           0       -0.491063   10.969091   -8.857915
     58          6           0       -0.007261   10.195247   -7.627110
     59          8           0        0.044800   10.630096   -6.489862
     60          6           0       -0.223073   12.482260   -8.769338
     61          6           0        1.171149   12.912490   -9.247222
     62          6           0        2.337555   12.379847   -8.409543
     63          7           0        2.412904   10.912914   -8.429658
     64          6           0        2.918406   10.278118   -9.577674
     65          7           0        3.197450   10.962897  -10.623176
     66          7           0        3.059548    8.901488   -9.371178
     67          8           0        0.187167    8.886833   -7.903919
     68          1           0        0.348223    8.433653   -7.053817
     69          1           0       -2.169499    9.907065   -9.727267
     70          1           0        0.012692   10.553379   -9.732591
     71          1           0       -0.386595   12.814278   -7.741665
     72          1           0       -0.977641   12.981226   -9.387154
     73          1           0        1.329039   12.618603  -10.288933
     74          1           0        1.214198   14.009211   -9.219770
     75          1           0        3.273696   12.820652   -8.772609
     76          1           0        2.200349   12.667894   -7.360911
     77          1           0        2.814903   10.522544   -7.583809
     78          1           0        3.468694   10.362674  -11.402954
     79          1           0        3.318721    8.382782  -10.201693
     80          1           0        2.270504    8.477080   -8.893974
 ---------------------------------------------------------------------

 SCF Done:  E(RB3LYP) =  -1866.72219196     A.U. after    2 cycles

 Alpha  occ. eigenvalues --  -19.30842 -19.25403 -19.24807 -19.24537 -19.22695
 Alpha  occ. eigenvalues --  -19.21114 -14.55393 -14.48959 -14.47256 -14.46310
 Alpha  occ. eigenvalues --  -14.45276 -14.42867 -14.42050 -14.36393 -10.43708
 Alpha  occ. eigenvalues --  -10.41982 -10.41196 -10.40231 -10.38488 -10.38229
 Alpha  occ. eigenvalues --  -10.35653 -10.34548 -10.34421 -10.33567 -10.32575
 Alpha  occ. eigenvalues --  -10.30911 -10.30887 -10.29651 -10.29422 -10.29355
 Alpha  occ. eigenvalues --  -10.29237 -10.29221 -10.28989 -10.28652 -10.28078
 Alpha  occ. eigenvalues --  -10.26984 -10.26287 -10.24551 -10.23934  -1.21813
 Alpha  occ. eigenvalues --   -1.17187  -1.15975  -1.14242  -1.13094  -1.12746
 Alpha  occ. eigenvalues --   -1.10619  -1.05249  -1.05193  -1.04170  -1.02188
 Alpha  occ. eigenvalues --   -1.01111  -0.96440  -0.96363  -0.91916  -0.91872
 Alpha  occ. eigenvalues --   -0.90321  -0.89698  -0.87782  -0.85717  -0.84792
 Alpha  occ. eigenvalues --   -0.83649  -0.83187  -0.78727  -0.78179  -0.77071
 Alpha  occ. eigenvalues --   -0.75464  -0.74639  -0.72495  -0.72157  -0.71239
 Alpha  occ. eigenvalues --   -0.70782  -0.70436  -0.69349  -0.69190  -0.68506
 Alpha  occ. eigenvalues --   -0.68021  -0.66860  -0.65757  -0.64505  -0.64149
 Alpha  occ. eigenvalues --   -0.63901  -0.63183  -0.61853  -0.61812  -0.61358
 Alpha  occ. eigenvalues --   -0.60919  -0.60155  -0.59643  -0.59076  -0.58935
 Alpha  occ. eigenvalues --   -0.58281  -0.58017  -0.56630  -0.56105  -0.55845
 Alpha  occ. eigenvalues --   -0.55343  -0.54820  -0.54689  -0.54350  -0.54093
 Alpha  occ. eigenvalues --   -0.53317  -0.53017  -0.52608  -0.52422  -0.52068
 Alpha  occ. eigenvalues --   -0.51875  -0.51734  -0.51295  -0.50857  -0.50551
 Alpha  occ. eigenvalues --   -0.50366  -0.49836  -0.49664  -0.49117  -0.48761
 Alpha  occ. eigenvalues --   -0.47973  -0.47327  -0.46777  -0.46606  -0.46326
 Alpha  occ. eigenvalues --   -0.46057  -0.45411  -0.45151  -0.44756  -0.44468
 Alpha  occ. eigenvalues --   -0.44094  -0.43892  -0.43410  -0.42945  -0.42045
 Alpha  occ. eigenvalues --   -0.40999  -0.40482  -0.40354  -0.40138  -0.39130
 Alpha  occ. eigenvalues --   -0.38629  -0.38459  -0.37657  -0.36893  -0.36793
 Alpha  occ. eigenvalues --   -0.35482  -0.35447  -0.35077  -0.34477  -0.34139
 Alpha  occ. eigenvalues --   -0.32926  -0.31004
 Alpha virt. eigenvalues --   -0.11910  -0.11391  -0.10772  -0.10575  -0.09083
 Alpha virt. eigenvalues --   -0.08290  -0.07401  -0.05036  -0.03947  -0.03470
 Alpha virt. eigenvalues --   -0.02671  -0.02195  -0.01842  -0.01237  -0.00500

 Mulliken charges:
               1
     1  N   -0.764177
     2  C   -0.098657
     3  C    0.658601
     4  O   -0.521575
     5  C   -0.392399
     6  C    0.114925
     7  C   -0.189183
     8  C   -0.202197
     9  C   -0.126771
    10  C   -0.131441
    11  C   -0.125672
    12  H    0.412225
    13  H    0.405152
    14  H    0.215934
    15  H    0.179138
    16  H    0.191035
    17  H    0.141434
    18  H    0.162785
    19  H    0.162065
    20  H    0.157107
    21  H    0.162114
    22  H    0.468747
    23  N   -0.656073
    24  C   -0.017871
    25  C    0.613937
    26  O   -0.497444
    27  C   -0.307454
    28  C   -0.078878
    29  C   -0.462651
    30  C   -0.446441
    31  H    0.350468
    32  H    0.208963
    33  H    0.155416
    34  H    0.135654
    35  H    0.145161
    36  H    0.139722
    37  H    0.158720
    38  H    0.175928
    39  H    0.140420
    40  H    0.160842
    41  H    0.148820
    42  N   -0.606407
    43  C   -0.063032
    44  C    0.619776
    45  O   -0.610003
    46  C   -0.380902
    47  C    0.637395
    48  N   -0.736038
    49  O   -0.531863
    50  H    0.342437
    51  H    0.224100
    52  H    0.192622
    53  H    0.192182
    54  H    0.366890
    55  H    0.358761
    56  N   -0.627384
    57  C   -0.015137
    58  C    0.656495
    59  O   -0.528378
    60  C   -0.278548
    61  C   -0.280996
    62  C   -0.115746
    63  N   -0.633709
    64  C    0.575331
    65  N   -0.629082
    66  N   -0.763157
    67  O   -0.569135
    68  H    0.421182
    69  H    0.410279
    70  H    0.197362
    71  H    0.148803
    72  H    0.150744
    73  H    0.191856
    74  H    0.142740
    75  H    0.178724
    76  H    0.134737
    77  H    0.333370
    78  H    0.281550
    79  H    0.330226
    80  H    0.335528
 Sum of Mulliken charges =   1.00000

 Dipole moment (field-independent basis, Debye):
    X=            -13.5995    Y=             57.7186    Z=            -32.7963  Tot=             67.7641
 Quadrupole moment (field-independent basis, Debye-Ang):
   XX=           -134.9751   YY=            482.4827   ZZ=             61.0740
   XY=           -173.9725   XZ=            108.2018   YZ=           -364.3602

 Normal termination of Gaussian 16 at Sat Jun 11 21:07:20 2022.
