 Gaussian 16, Revision C.01,
 Gaussian 16:  ES64L-G16RevC.01  3-Jul-2019

 ----------------------------------------------------------------------
 # B3LYP/6-31G* empiricaldispersion=gd3 guess=read geom=check nosymm in
 tegral(ultrafinegrid)
 ----------------------------------------------------------------------

 ------------------------------------------------------
 Candidate Structure: Conf:242 Charge calc in gas phase
 ------------------------------------------------------
 Structure from the checkpoint file:  "conf-242.chk"
 Charge =  1 Multiplicity = 1

                          Input orientation:
 ---------------------------------------------------------------------
 Center     Atomic      Atomic             Coordinates (Angstroms)
 Number     Number       Type             X           Y           Z
 ---------------------------------------------------------------------
      1          7           0       -0.731740   11.255534   -5.845297
      2          6           0       -1.297439   11.985208   -4.662791
      3          6           0       -2.607211   11.218752   -4.363388
      4          8           0       -2.669414   10.026321   -4.653648
      5          6           0       -1.427823   13.489531   -4.983083
      6          6           0       -0.200618   14.020253   -5.695960
      7          6           0        0.991933   14.262778   -5.000881
      8          6           0       -0.225915   14.186709   -7.088110
      9          6           0        2.138665   14.668097   -5.686197
     10          6           0        0.921964   14.589498   -7.773695
     11          6           0        2.106315   14.829215   -7.073960
     12          1           0       -1.330640   11.441318   -6.683795
     13          1           0       -0.797759   10.241941   -5.692058
     14          1           0       -0.598090   11.831884   -3.833973
     15          1           0       -1.586748   14.022088   -4.037742
     16          1           0       -2.309684   13.639275   -5.611680
     17          1           0        1.021700   14.147063   -3.919195
     18          1           0       -1.148083   13.996957   -7.631063
     19          1           0        3.054809   14.863293   -5.136589
     20          1           0        0.887567   14.720118   -8.851670
     21          1           0        2.998867   15.146312   -7.604994
     22          1           0        0.228436   11.528327   -6.066087
     23          7           0       -3.644217   11.911226   -3.845395
     24          6           0       -4.967911   11.284597   -3.714562
     25          6           0       -5.500438   10.800544   -5.081852
     26          8           0       -6.220991    9.821653   -5.162325
     27          6           0       -5.962803   12.249013   -3.053575
     28          6           0       -5.597433   12.713621   -1.628766
     29          6           0       -6.672263   13.683823   -1.116839
     30          6           0       -5.414635   11.535469   -0.662363
     31          1           0       -3.541503   12.888427   -3.608678
     32          1           0       -4.865233   10.372225   -3.123571
     33          1           0       -6.095823   13.123800   -3.706808
     34          1           0       -6.929502   11.731950   -3.027617
     35          1           0       -4.645436   13.268200   -1.670850
     36          1           0       -7.641886   13.177680   -1.033710
     37          1           0       -6.411273   14.069090   -0.125522
     38          1           0       -6.797432   14.540170   -1.790055
     39          1           0       -5.214168   11.896702    0.351840
     40          1           0       -6.322288   10.920459   -0.624399
     41          1           0       -4.580192   10.886311   -0.950312
     42          7           0       -5.143656   11.571058   -6.164081
     43          6           0       -5.100193   10.978354   -7.487711
     44          6           0       -3.661730   11.175254   -8.028803
     45          8           0       -2.849455   11.878609   -7.388018
     46          6           0       -6.208063   11.536321   -8.416204
     47          6           0       -6.627101   10.547964   -9.504024
     48          7           0       -7.887768   10.683251   -9.968051
     49          8           0       -5.862156    9.686178   -9.949723
     50          1           0       -4.407388   12.249143   -6.012680
     51          1           0       -5.274032    9.902612   -7.371279
     52          1           0       -7.065130   11.782421   -7.782054
     53          1           0       -5.888493   12.470727   -8.895722
     54          1           0       -8.207617   10.044944  -10.684943
     55          1           0       -8.556035   11.319261   -9.558941
     56          7           0       -3.376894   10.550861   -9.171360
     57          6           0       -2.049135   10.503344   -9.815132
     58          6           0       -1.218504    9.507551   -8.998772
     59          8           0       -0.453450    9.793494   -8.094319
     60          6           0       -1.374003   11.878489   -9.966600
     61          6           0       -0.392301   11.981211  -11.142703
     62          6           0        0.843306   11.082288  -11.037277
     63          7           0        0.493133    9.655783  -11.016266
     64          6           0        0.116279    9.034744  -12.219873
     65          7           0       -0.026960    9.728787  -13.286477
     66          7           0       -0.037630    7.654696  -12.047872
     67          8           0       -1.566718    8.229295   -9.265837
     68          1           0       -1.109065    7.664154   -8.613802
     69          1           0       -4.150746   10.014481   -9.589876
     70          1           0       -2.222720   10.064616  -10.799494
     71          1           0       -0.868459   12.132952   -9.032316
     72          1           0       -2.171397   12.616495  -10.106592
     73          1           0       -0.899087   11.765050  -12.087645
     74          1           0       -0.044500   13.020825  -11.202838
     75          1           0        1.522013   11.302218  -11.870029
     76          1           0        1.368272   11.285460  -10.096765
     77          1           0        1.157890    9.089274  -10.499948
     78          1           0       -0.387287    9.163269  -14.056057
     79          1           0       -0.412265    7.175943  -12.858082
     80          1           0       -0.533936    7.401870  -11.199217
 ---------------------------------------------------------------------

 SCF Done:  E(RB3LYP) =  -1866.72141046     A.U. after    1 cycles

 Alpha  occ. eigenvalues --  -19.30807 -19.25370 -19.24783 -19.24521 -19.22609
 Alpha  occ. eigenvalues --  -19.20858 -14.55380 -14.48910 -14.47213 -14.46214
 Alpha  occ. eigenvalues --  -14.45087 -14.42832 -14.42019 -14.36360 -10.43673
 Alpha  occ. eigenvalues --  -10.41965 -10.41159 -10.40136 -10.38481 -10.38035
 Alpha  occ. eigenvalues --  -10.35620 -10.34508 -10.34360 -10.33435 -10.32570
 Alpha  occ. eigenvalues --  -10.30899 -10.30763 -10.29639 -10.29405 -10.29322
 Alpha  occ. eigenvalues --  -10.29221 -10.29207 -10.28974 -10.28532 -10.28180
 Alpha  occ. eigenvalues --  -10.28037 -10.26249 -10.25354 -10.25239  -1.21778
 Alpha  occ. eigenvalues --   -1.17160  -1.15956  -1.14150  -1.12903  -1.12697
 Alpha  occ. eigenvalues --   -1.10601  -1.05223  -1.05160  -1.04130  -1.02044
 Alpha  occ. eigenvalues --   -1.01015  -0.96427  -0.96330  -0.91958  -0.91843
 Alpha  occ. eigenvalues --   -0.90292  -0.89949  -0.87793  -0.85820  -0.84780
 Alpha  occ. eigenvalues --   -0.83624  -0.83570  -0.78616  -0.78224  -0.77029
 Alpha  occ. eigenvalues --   -0.76378  -0.74755  -0.72460  -0.72221  -0.71256
 Alpha  occ. eigenvalues --   -0.70758  -0.70414  -0.69317  -0.69145  -0.68494
 Alpha  occ. eigenvalues --   -0.67907  -0.66799  -0.65844  -0.65265  -0.64177
 Alpha  occ. eigenvalues --   -0.63825  -0.63158  -0.61810  -0.61759  -0.61247
 Alpha  occ. eigenvalues --   -0.60841  -0.60149  -0.59618  -0.59275  -0.58893
 Alpha  occ. eigenvalues --   -0.58382  -0.57806  -0.56560  -0.56073  -0.55814
 Alpha  occ. eigenvalues --   -0.55295  -0.54761  -0.54681  -0.54396  -0.54216
 Alpha  occ. eigenvalues --   -0.53281  -0.52979  -0.52681  -0.52458  -0.52277
 Alpha  occ. eigenvalues --   -0.52042  -0.51798  -0.51483  -0.50982  -0.50559
 Alpha  occ. eigenvalues --   -0.50275  -0.49963  -0.49375  -0.49042  -0.48136
 Alpha  occ. eigenvalues --   -0.48098  -0.47491  -0.47056  -0.46764  -0.46346
 Alpha  occ. eigenvalues --   -0.46265  -0.46048  -0.45676  -0.44771  -0.44526
 Alpha  occ. eigenvalues --   -0.44418  -0.43874  -0.43374  -0.42913  -0.42022
 Alpha  occ. eigenvalues --   -0.41518  -0.41403  -0.41138  -0.40424  -0.39131
 Alpha  occ. eigenvalues --   -0.38700  -0.38435  -0.37588  -0.36848  -0.36694
 Alpha  occ. eigenvalues --   -0.35461  -0.35284  -0.35058  -0.34445  -0.33940
 Alpha  occ. eigenvalues --   -0.32893  -0.30971
 Alpha virt. eigenvalues --   -0.11893  -0.11354  -0.10759  -0.10569  -0.09072
 Alpha virt. eigenvalues --   -0.08182  -0.07143  -0.05120  -0.04275  -0.03501
 Alpha virt. eigenvalues --   -0.02639  -0.02110  -0.01730  -0.01157  -0.00563

 Mulliken charges:
               1
     1  N   -0.764358
     2  C   -0.098551
     3  C    0.654752
     4  O   -0.521227
     5  C   -0.393130
     6  C    0.115316
     7  C   -0.188927
     8  C   -0.202545
     9  C   -0.126812
    10  C   -0.131499
    11  C   -0.125604
    12  H    0.469431
    13  H    0.412135
    14  H    0.215651
    15  H    0.178893
    16  H    0.191664
    17  H    0.141115
    18  H    0.163158
    19  H    0.161907
    20  H    0.157055
    21  H    0.162056
    22  H    0.404973
    23  N   -0.649181
    24  C   -0.026129
    25  C    0.600344
    26  O   -0.493593
    27  C   -0.307139
    28  C   -0.079539
    29  C   -0.444000
    30  C   -0.452248
    31  H    0.352288
    32  H    0.208380
    33  H    0.139443
    34  H    0.183819
    35  H    0.107608
    36  H    0.157803
    37  H    0.160416
    38  H    0.144864
    39  H    0.161901
    40  H    0.160699
    41  H    0.146035
    42  N   -0.609021
    43  C   -0.059887
    44  C    0.619062
    45  O   -0.610916
    46  C   -0.380253
    47  C    0.637364
    48  N   -0.735804
    49  O   -0.532552
    50  H    0.343168
    51  H    0.222467
    52  H    0.193868
    53  H    0.191828
    54  H    0.366668
    55  H    0.358980
    56  N   -0.627234
    57  C   -0.014812
    58  C    0.656097
    59  O   -0.528307
    60  C   -0.278535
    61  C   -0.280882
    62  C   -0.115708
    63  N   -0.633632
    64  C    0.575278
    65  N   -0.629046
    66  N   -0.763214
    67  O   -0.569037
    68  H    0.421037
    69  H    0.410427
    70  H    0.197317
    71  H    0.148957
    72  H    0.150813
    73  H    0.191827
    74  H    0.142702
    75  H    0.178683
    76  H    0.134590
    77  H    0.333273
    78  H    0.281523
    79  H    0.330180
    80  H    0.335509
 Sum of Mulliken charges =   1.00000

 Dipole moment (field-independent basis, Debye):
    X=            -11.9951    Y=             57.3470    Z=            -32.4421  Tot=             66.9705
 Quadrupole moment (field-independent basis, Debye-Ang):
   XX=           -130.3457   YY=            477.0003   ZZ=             41.6066
   XY=           -151.2424   XZ=             99.0579   YZ=           -358.0879

 Normal termination of Gaussian 16 at Sat Jun 11 21:06:59 2022.
