 Gaussian 16, Revision C.01,
 Gaussian 16:  ES64L-G16RevC.01  3-Jul-2019

 ----------------------------------------------------------------------
 # B3LYP/6-31G* empiricaldispersion=gd3 guess=read geom=check nosymm in
 tegral(ultrafinegrid)
 ----------------------------------------------------------------------

 ------------------------------------------------------
 Candidate Structure: Conf:950 Charge calc in gas phase
 ------------------------------------------------------
 Structure from the checkpoint file:  "conf-950.chk"
 Charge =  1 Multiplicity = 1

                          Input orientation:
 ---------------------------------------------------------------------
 Center     Atomic      Atomic             Coordinates (Angstroms)
 Number     Number       Type             X           Y           Z
 ---------------------------------------------------------------------
      1          7           0       -1.808772   14.660212   -6.926306
      2          6           0       -1.879371   13.903025   -5.625914
      3          6           0       -0.885359   12.735469   -5.773036
      4          8           0       -0.217812   12.635868   -6.809358
      5          6           0       -3.345716   13.498767   -5.351617
      6          6           0       -4.276323   14.689596   -5.448230
      7          6           0       -4.423203   15.581668   -4.376936
      8          6           0       -4.961327   14.944788   -6.647242
      9          6           0       -5.245528   16.702435   -4.495553
     10          6           0       -5.781672   16.069462   -6.766346
     11          6           0       -5.925287   16.948687   -5.691488
     12          1           0       -0.843182   14.919431   -7.146745
     13          1           0       -2.408610   15.491533   -6.877388
     14          1           0       -1.527228   14.590102   -4.848103
     15          1           0       -3.383200   13.062650   -4.346712
     16          1           0       -3.628186   12.710789   -6.052417
     17          1           0       -3.905318   15.389070   -3.439231
     18          1           0       -4.853353   14.254578   -7.481182
     19          1           0       -5.360870   17.379487   -3.654239
     20          1           0       -6.315390   16.251733   -7.694719
     21          1           0       -6.568315   17.819058   -5.781810
     22          1           0       -2.163931   14.047080   -7.721608
     23          7           0       -0.763348   11.905494   -4.725471
     24          6           0        0.195646   10.783353   -4.709668
     25          6           0       -0.221454    9.647809   -5.669705
     26          8           0        0.585991    9.161696   -6.441571
     27          6           0        0.362674   10.286583   -3.264342
     28          6           0        1.286288    9.062150   -3.106198
     29          6           0        2.684325    9.308571   -3.691990
     30          6           0        1.364443    8.673036   -1.623248
     31          1           0       -1.324553   12.065688   -3.898237
     32          1           0        1.140917   11.156391   -5.106698
     33          1           0        0.755989   11.117234   -2.661280
     34          1           0       -0.629922   10.035227   -2.861173
     35          1           0        0.830057    8.225918   -3.654055
     36          1           0        2.650556    9.433110   -4.778551
     37          1           0        3.144385   10.201065   -3.247316
     38          1           0        3.340664    8.458193   -3.479239
     39          1           0        1.833402    9.470654   -1.033021
     40          1           0        0.370612    8.480839   -1.200987
     41          1           0        1.965365    7.767133   -1.492457
     42          7           0       -1.519365    9.201643   -5.527210
     43          6           0       -2.168661    8.579191   -6.677864
     44          6           0       -2.952696    9.707129   -7.381689
     45          8           0       -3.239524   10.739522   -6.752672
     46          6           0       -3.037420    7.377592   -6.280526
     47          6           0       -3.368159    6.497362   -7.490168
     48          7           0       -4.083263    5.380000   -7.214670
     49          8           0       -3.009806    6.780197   -8.632568
     50          1           0       -2.137250    9.864972   -5.069600
     51          1           0       -1.376607    8.232091   -7.344483
     52          1           0       -2.483634    6.783358   -5.543891
     53          1           0       -3.966271    7.701594   -5.792969
     54          1           0       -4.283642    4.739856   -7.971560
     55          1           0       -4.308558    5.095589   -6.272792
     56          7           0       -3.205864    9.587071   -8.691819
     57          6           0       -3.584352   10.779776   -9.455121
     58          6           0       -2.608529   11.892296   -9.036619
     59          8           0       -2.937070   13.054608   -8.774363
     60          6           0       -5.080131   11.161510   -9.311216
     61          6           0       -5.832921   11.240535  -10.650328
     62          6           0       -5.633903   12.549792  -11.437404
     63          7           0       -4.263708   13.032217  -11.582984
     64          6           0       -3.320466   12.345276  -12.319934
     65          7           0       -3.601977   11.213664  -12.864668
     66          7           0       -2.072431   12.997091  -12.304072
     67          8           0       -1.361626   11.461366   -8.991389
     68          1           0       -0.788767   12.080113   -8.484579
     69          1           0       -2.962307    8.710658   -9.147921
     70          1           0       -3.361419   10.550789  -10.503933
     71          1           0       -5.172340   12.101926   -8.757481
     72          1           0       -5.541586   10.391328   -8.686965
     73          1           0       -5.542684   10.398227  -11.284965
     74          1           0       -6.909086   11.140946  -10.458411
     75          1           0       -6.054834   12.426184  -12.439612
     76          1           0       -6.186105   13.360068  -10.946249
     77          1           0       -3.896426   13.555734  -10.800128
     78          1           0       -2.849365   10.897581  -13.477341
     79          1           0       -1.389435   12.574344  -12.922281
     80          1           0       -2.133718   13.998316  -12.463123
 ---------------------------------------------------------------------

 SCF Done:  E(RB3LYP) =  -1866.71486129     A.U. after    3 cycles

 Alpha  occ. eigenvalues --  -19.29686 -19.26482 -19.26393 -19.22231 -19.21214
 Alpha  occ. eigenvalues --  -19.21104 -14.57375 -14.50179 -14.45213 -14.44962
 Alpha  occ. eigenvalues --  -14.44919 -14.42299 -14.41655 -14.35772 -10.44046
 Alpha  occ. eigenvalues --  -10.43654 -10.39715 -10.38825 -10.38564 -10.38161
 Alpha  occ. eigenvalues --  -10.35313 -10.34017 -10.33025 -10.32849 -10.32127
 Alpha  occ. eigenvalues --  -10.30992 -10.29806 -10.29754 -10.29593 -10.29338
 Alpha  occ. eigenvalues --  -10.29308 -10.29084 -10.29021 -10.28508 -10.27288
 Alpha  occ. eigenvalues --  -10.26731 -10.24990 -10.24765 -10.24245  -1.21940
 Alpha  occ. eigenvalues --   -1.18432  -1.14222  -1.13269  -1.12929  -1.12736
 Alpha  occ. eigenvalues --   -1.11935  -1.06335  -1.04792  -1.02219  -1.01634
 Alpha  occ. eigenvalues --   -0.99730  -0.96562  -0.95843  -0.92496  -0.91315
 Alpha  occ. eigenvalues --   -0.90401  -0.88586  -0.86813  -0.86113  -0.84896
 Alpha  occ. eigenvalues --   -0.83574  -0.82394  -0.78513  -0.77519  -0.76519
 Alpha  occ. eigenvalues --   -0.75741  -0.74796  -0.73078  -0.72168  -0.71963
 Alpha  occ. eigenvalues --   -0.71415  -0.70473  -0.69469  -0.68920  -0.68005
 Alpha  occ. eigenvalues --   -0.67349  -0.66305  -0.65482  -0.64781  -0.64142
 Alpha  occ. eigenvalues --   -0.64009  -0.63224  -0.62360  -0.61562  -0.61130
 Alpha  occ. eigenvalues --   -0.60536  -0.59906  -0.59491  -0.59080  -0.58901
 Alpha  occ. eigenvalues --   -0.57730  -0.57097  -0.56743  -0.56204  -0.55600
 Alpha  occ. eigenvalues --   -0.55039  -0.54759  -0.54521  -0.54189  -0.53541
 Alpha  occ. eigenvalues --   -0.53031  -0.52488  -0.52296  -0.52038  -0.51516
 Alpha  occ. eigenvalues --   -0.51384  -0.51088  -0.50886  -0.50687  -0.50153
 Alpha  occ. eigenvalues --   -0.49865  -0.49472  -0.48766  -0.48482  -0.48042
 Alpha  occ. eigenvalues --   -0.47392  -0.46785  -0.46438  -0.46354  -0.45917
 Alpha  occ. eigenvalues --   -0.45654  -0.45097  -0.44909  -0.44764  -0.44495
 Alpha  occ. eigenvalues --   -0.44363  -0.43461  -0.42381  -0.41710  -0.41472
 Alpha  occ. eigenvalues --   -0.40769  -0.40623  -0.40543  -0.40463  -0.40334
 Alpha  occ. eigenvalues --   -0.39913  -0.36733  -0.36047  -0.35927  -0.35626
 Alpha  occ. eigenvalues --   -0.35286  -0.35183  -0.34745  -0.33937  -0.33788
 Alpha  occ. eigenvalues --   -0.32549  -0.29899
 Alpha virt. eigenvalues --   -0.12909  -0.11296  -0.10921  -0.10791  -0.08469
 Alpha virt. eigenvalues --   -0.07544  -0.07476  -0.06706  -0.05524  -0.02532
 Alpha virt. eigenvalues --   -0.02407  -0.01770  -0.00974  -0.00737  -0.00536

 Mulliken charges:
               1
     1  N   -0.760400
     2  C   -0.135356
     3  C    0.696632
     4  O   -0.566050
     5  C   -0.400555
     6  C    0.123865
     7  C   -0.184364
     8  C   -0.229911
     9  C   -0.125001
    10  C   -0.129123
    11  C   -0.124976
    12  H    0.405501
    13  H    0.403885
    14  H    0.210236
    15  H    0.166595
    16  H    0.254988
    17  H    0.135253
    18  H    0.175876
    19  H    0.161356
    20  H    0.157755
    21  H    0.163144
    22  H    0.444488
    23  N   -0.631578
    24  C   -0.048078
    25  C    0.618406
    26  O   -0.483853
    27  C   -0.300579
    28  C   -0.083065
    29  C   -0.464868
    30  C   -0.446748
    31  H    0.347374
    32  H    0.206800
    33  H    0.153711
    34  H    0.135774
    35  H    0.150807
    36  H    0.176482
    37  H    0.138867
    38  H    0.161652
    39  H    0.148052
    40  H    0.142032
    41  H    0.162990
    42  N   -0.588108
    43  C   -0.078864
    44  C    0.616965
    45  O   -0.576975
    46  C   -0.388583
    47  C    0.626688
    48  N   -0.742339
    49  O   -0.521562
    50  H    0.328604
    51  H    0.225966
    52  H    0.196957
    53  H    0.180553
    54  H    0.363021
    55  H    0.352450
    56  N   -0.600666
    57  C   -0.021179
    58  C    0.629621
    59  O   -0.559938
    60  C   -0.286058
    61  C   -0.282773
    62  C   -0.120367
    63  N   -0.600058
    64  C    0.567465
    65  N   -0.646251
    66  N   -0.762795
    67  O   -0.547408
    68  H    0.454409
    69  H    0.391490
    70  H    0.233175
    71  H    0.159066
    72  H    0.161854
    73  H    0.185939
    74  H    0.142331
    75  H    0.180355
    76  H    0.133966
    77  H    0.329505
    78  H    0.277817
    79  H    0.329712
    80  H    0.327996
 Sum of Mulliken charges =   1.00000

 Dipole moment (field-independent basis, Debye):
    X=            -13.0339    Y=             61.3946    Z=            -28.4130  Tot=             68.8947
 Quadrupole moment (field-independent basis, Debye-Ang):
   XX=           -179.0923   YY=            643.3192   ZZ=            -21.7365
   XY=           -153.3136   XZ=             80.9450   YZ=           -382.3960

 Normal termination of Gaussian 16 at Sat Jun 11 21:15:48 2022.
