 Gaussian 16, Revision C.01,
 Gaussian 16:  ES64L-G16RevC.01  3-Jul-2019

 ----------------------------------------------------------------------
 # B3LYP/6-31G* empiricaldispersion=gd3 guess=read geom=check nosymm in
 tegral(ultrafinegrid)
 ----------------------------------------------------------------------

 ------------------------------------------------------
 Candidate Structure: Conf:474 Charge calc in gas phase
 ------------------------------------------------------
 Structure from the checkpoint file:  "conf-474.chk"
 Charge =  1 Multiplicity = 1

                          Input orientation:
 ---------------------------------------------------------------------
 Center     Atomic      Atomic             Coordinates (Angstroms)
 Number     Number       Type             X           Y           Z
 ---------------------------------------------------------------------
      1          7           0       -2.961991    9.062354   -6.792277
      2          6           0       -3.470036    8.673263   -8.149015
      3          6           0       -2.390753    9.230668   -9.106857
      4          8           0       -1.236492    9.329882   -8.697398
      5          6           0       -4.910057    9.194919   -8.342397
      6          6           0       -5.759462    8.968279   -7.108296
      7          6           0       -6.245997    7.693348   -6.788710
      8          6           0       -5.988594   10.029080   -6.220372
      9          6           0       -6.952338    7.483965   -5.602890
     10          6           0       -6.692885    9.818918   -5.033042
     11          6           0       -7.174278    8.545710   -4.721741
     12          1           0       -3.474384    8.618654   -6.026974
     13          1           0       -3.035173   10.100935   -6.682826
     14          1           0       -3.452410    7.578981   -8.190471
     15          1           0       -5.341422    8.679413   -9.208829
     16          1           0       -4.868232   10.264050   -8.567039
     17          1           0       -6.083810    6.863924   -7.474341
     18          1           0       -5.610683   11.018675   -6.463269
     19          1           0       -7.333803    6.494180   -5.369876
     20          1           0       -6.868258   10.650555   -4.356367
     21          1           0       -7.725432    8.381156   -3.800685
     22          1           0       -1.957306    8.859231   -6.725575
     23          7           0       -2.780250    9.637633  -10.333889
     24          6           0       -1.845519   10.348091  -11.222152
     25          6           0       -1.276746   11.607287  -10.532743
     26          8           0       -0.130637   11.973744  -10.728348
     27          6           0       -2.559492   10.682543  -12.542952
     28          6           0       -1.718797   11.479890  -13.560033
     29          6           0       -0.402179   10.771463  -13.909568
     30          6           0       -2.560416   11.741602  -14.817186
     31          1           0       -3.739307    9.522217  -10.632721
     32          1           0       -0.979621    9.707502  -11.400093
     33          1           0       -2.875627    9.735937  -13.004474
     34          1           0       -3.473254   11.250108  -12.311701
     35          1           0       -1.469690   12.448797  -13.106341
     36          1           0        0.119744   11.310726  -14.707246
     37          1           0        0.270215   10.727793  -13.047900
     38          1           0       -0.588168    9.750083  -14.267412
     39          1           0       -2.006681   12.359577  -15.531738
     40          1           0       -2.815751   10.800493  -15.320755
     41          1           0       -3.496937   12.260493  -14.578768
     42          7           0       -2.165769   12.295849   -9.739951
     43          6           0       -1.670508   13.143484   -8.671304
     44          6           0       -2.255021   12.600531   -7.343059
     45          8           0       -3.112183   11.689992   -7.369321
     46          6           0       -1.970727   14.641781   -8.927939
     47          6           0       -0.959578   15.574485   -8.261767
     48          7           0       -0.794981   16.779286   -8.848591
     49          8           0       -0.338812   15.261186   -7.240707
     50          1           0       -3.019051   11.808635   -9.495152
     51          1           0       -0.582129   13.021501   -8.637407
     52          1           0       -1.962206   14.791279  -10.011931
     53          1           0       -2.976547   14.909077   -8.578498
     54          1           0       -0.132284   17.426386   -8.441467
     55          1           0       -1.227251   17.024074   -9.727022
     56          7           0       -1.778890   13.154518   -6.227773
     57          6           0       -2.104267   12.732593   -4.850814
     58          6           0       -1.308892   11.446420   -4.603780
     59          8           0       -1.730149   10.312056   -4.748423
     60          6           0       -3.611715   12.577317   -4.580874
     61          6           0       -4.024110   12.792169   -3.117649
     62          6           0       -3.463469   11.766239   -2.128239
     63          7           0       -1.996001   11.794912   -2.069436
     64          6           0       -1.367859   12.842987   -1.374142
     65          7           0       -2.061416   13.809765   -0.900724
     66          7           0        0.013600   12.636519   -1.292974
     67          8           0       -0.000764   11.702597   -4.381387
     68          1           0        0.464567   10.843842   -4.379817
     69          1           0       -1.080250   13.899161   -6.364688
     70          1           0       -1.689756   13.510152   -4.206425
     71          1           0       -3.935521   11.591124   -4.920864
     72          1           0       -4.129569   13.313309   -5.205539
     73          1           0       -3.738914   13.792626   -2.779654
     74          1           0       -5.119626   12.742700   -3.064781
     75          1           0       -3.894531   11.947787   -1.136423
     76          1           0       -3.740077   10.755286   -2.448991
     77          1           0       -1.588587   10.896671   -1.831494
     78          1           0       -1.466930   14.537426   -0.501979
     79          1           0        0.525919   13.414795   -0.895751
     80          1           0        0.430356   12.316013   -2.161320
 ---------------------------------------------------------------------

 SCF Done:  E(RB3LYP) =  -1866.72219056     A.U. after    3 cycles

 Alpha  occ. eigenvalues --  -19.30843 -19.25404 -19.24810 -19.24537 -19.22695
 Alpha  occ. eigenvalues --  -19.21116 -14.55394 -14.48959 -14.47259 -14.46312
 Alpha  occ. eigenvalues --  -14.45275 -14.42863 -14.42047 -14.36389 -10.43709
 Alpha  occ. eigenvalues --  -10.41983 -10.41200 -10.40231 -10.38490 -10.38230
 Alpha  occ. eigenvalues --  -10.35649 -10.34552 -10.34426 -10.33565 -10.32575
 Alpha  occ. eigenvalues --  -10.30913 -10.30887 -10.29653 -10.29424 -10.29353
 Alpha  occ. eigenvalues --  -10.29238 -10.29223 -10.28991 -10.28648 -10.28078
 Alpha  occ. eigenvalues --  -10.26978 -10.26289 -10.24546 -10.23932  -1.21813
 Alpha  occ. eigenvalues --   -1.17188  -1.15979  -1.14243  -1.13095  -1.12747
 Alpha  occ. eigenvalues --   -1.10618  -1.05249  -1.05190  -1.04171  -1.02187
 Alpha  occ. eigenvalues --   -1.01112  -0.96441  -0.96361  -0.91916  -0.91869
 Alpha  occ. eigenvalues --   -0.90321  -0.89696  -0.87783  -0.85718  -0.84794
 Alpha  occ. eigenvalues --   -0.83649  -0.83186  -0.78728  -0.78180  -0.77072
 Alpha  occ. eigenvalues --   -0.75462  -0.74637  -0.72495  -0.72159  -0.71242
 Alpha  occ. eigenvalues --   -0.70782  -0.70434  -0.69351  -0.69192  -0.68509
 Alpha  occ. eigenvalues --   -0.68020  -0.66860  -0.65759  -0.64506  -0.64146
 Alpha  occ. eigenvalues --   -0.63901  -0.63182  -0.61854  -0.61810  -0.61359
 Alpha  occ. eigenvalues --   -0.60921  -0.60156  -0.59642  -0.59076  -0.58933
 Alpha  occ. eigenvalues --   -0.58280  -0.58018  -0.56630  -0.56107  -0.55843
 Alpha  occ. eigenvalues --   -0.55343  -0.54822  -0.54694  -0.54351  -0.54096
 Alpha  occ. eigenvalues --   -0.53317  -0.53018  -0.52608  -0.52422  -0.52069
 Alpha  occ. eigenvalues --   -0.51875  -0.51735  -0.51296  -0.50857  -0.50551
 Alpha  occ. eigenvalues --   -0.50364  -0.49834  -0.49664  -0.49117  -0.48758
 Alpha  occ. eigenvalues --   -0.47977  -0.47328  -0.46778  -0.46604  -0.46326
 Alpha  occ. eigenvalues --   -0.46056  -0.45407  -0.45150  -0.44758  -0.44470
 Alpha  occ. eigenvalues --   -0.44090  -0.43889  -0.43410  -0.42947  -0.42050
 Alpha  occ. eigenvalues --   -0.40995  -0.40483  -0.40350  -0.40135  -0.39135
 Alpha  occ. eigenvalues --   -0.38629  -0.38462  -0.37659  -0.36895  -0.36793
 Alpha  occ. eigenvalues --   -0.35483  -0.35450  -0.35079  -0.34473  -0.34138
 Alpha  occ. eigenvalues --   -0.32924  -0.31000
 Alpha virt. eigenvalues --   -0.11912  -0.11393  -0.10772  -0.10575  -0.09085
 Alpha virt. eigenvalues --   -0.08290  -0.07404  -0.05038  -0.03946  -0.03471
 Alpha virt. eigenvalues --   -0.02669  -0.02195  -0.01844  -0.01240  -0.00496

 Mulliken charges:
               1
     1  N   -0.764209
     2  C   -0.098714
     3  C    0.658623
     4  O   -0.521607
     5  C   -0.392317
     6  C    0.114936
     7  C   -0.189317
     8  C   -0.201913
     9  C   -0.126755
    10  C   -0.131421
    11  C   -0.125679
    12  H    0.405102
    13  H    0.468855
    14  H    0.215927
    15  H    0.179180
    16  H    0.191040
    17  H    0.141413
    18  H    0.162624
    19  H    0.162063
    20  H    0.157153
    21  H    0.162135
    22  H    0.412261
    23  N   -0.656152
    24  C   -0.017904
    25  C    0.613822
    26  O   -0.497426
    27  C   -0.307448
    28  C   -0.078814
    29  C   -0.462608
    30  C   -0.446450
    31  H    0.350466
    32  H    0.209020
    33  H    0.155367
    34  H    0.135716
    35  H    0.145257
    36  H    0.158725
    37  H    0.175850
    38  H    0.139685
    39  H    0.160843
    40  H    0.148786
    41  H    0.140432
    42  N   -0.606475
    43  C   -0.062956
    44  C    0.619727
    45  O   -0.610037
    46  C   -0.380834
    47  C    0.637426
    48  N   -0.736018
    49  O   -0.531905
    50  H    0.342552
    51  H    0.224053
    52  H    0.192544
    53  H    0.192201
    54  H    0.366893
    55  H    0.358782
    56  N   -0.627362
    57  C   -0.015154
    58  C    0.656552
    59  O   -0.528390
    60  C   -0.278570
    61  C   -0.280891
    62  C   -0.115731
    63  N   -0.633710
    64  C    0.575330
    65  N   -0.629054
    66  N   -0.763221
    67  O   -0.569141
    68  H    0.421213
    69  H    0.410281
    70  H    0.197236
    71  H    0.148843
    72  H    0.150703
    73  H    0.191786
    74  H    0.142724
    75  H    0.178700
    76  H    0.134678
    77  H    0.333357
    78  H    0.281537
    79  H    0.330215
    80  H    0.335573
 Sum of Mulliken charges =   1.00000

 Dipole moment (field-independent basis, Debye):
    X=            -15.2276    Y=             53.4857    Z=            -36.0094  Tot=             66.2516
 Quadrupole moment (field-independent basis, Debye-Ang):
   XX=           -163.0075   YY=            438.4070   ZZ=             90.9501
   XY=           -143.0062   XZ=            130.4577   YZ=           -413.6868

 Normal termination of Gaussian 16 at Sat Jun 11 21:07:40 2022.
