 Gaussian 16, Revision C.01,
 Gaussian 16:  ES64L-G16RevC.01  3-Jul-2019

 ----------------------------------------------------------------------
 # B3LYP/6-31G* empiricaldispersion=gd3 guess=read geom=check nosymm in
 tegral(ultrafinegrid)
 ----------------------------------------------------------------------

 ------------------------------------------------------
 Candidate Structure: Conf:549 Charge calc in gas phase
 ------------------------------------------------------
 Structure from the checkpoint file:  "conf-549.chk"
 Charge =  1 Multiplicity = 1

                          Input orientation:
 ---------------------------------------------------------------------
 Center     Atomic      Atomic             Coordinates (Angstroms)
 Number     Number       Type             X           Y           Z
 ---------------------------------------------------------------------
      1          7           0       -4.325834   10.617138   -7.850105
      2          6           0       -3.420518    9.684869   -8.584950
      3          6           0       -2.449080    9.145766   -7.505882
      4          8           0       -2.868686    8.973732   -6.362112
      5          6           0       -2.775474   10.406955   -9.778740
      6          6           0       -3.782903   11.046837  -10.713588
      7          6           0       -4.737419   10.265857  -11.381322
      8          6           0       -3.778894   12.431103  -10.916969
      9          6           0       -5.672497   10.857450  -12.231468
     10          6           0       -4.700344   13.024951  -11.785041
     11          6           0       -5.654740   12.241159  -12.437872
     12          1           0       -4.663643   10.181385   -6.980297
     13          1           0       -5.161519   10.977661   -8.388084
     14          1           0       -4.037849    8.849190   -8.931360
     15          1           0       -2.181193    9.673017  -10.338635
     16          1           0       -2.089593   11.168313   -9.391449
     17          1           0       -4.745994    9.185940  -11.248628
     18          1           0       -3.052808   13.050571  -10.396848
     19          1           0       -6.403023   10.239236  -12.745015
     20          1           0       -4.669636   14.098180  -11.952011
     21          1           0       -6.371348   12.701624  -13.111405
     22          1           0       -3.769203   11.428100   -7.511668
     23          7           0       -1.170073    8.911649   -7.866666
     24          6           0       -0.138258    8.591546   -6.869307
     25          6           0        0.105472    9.786405   -5.921941
     26          8           0        0.301742    9.613965   -4.732700
     27          6           0        1.149403    8.155638   -7.588575
     28          6           0        2.343399    7.850246   -6.662185
     29          6           0        2.007242    6.778596   -5.615048
     30          6           0        3.551916    7.436192   -7.513713
     31          1           0       -0.883075    9.032485   -8.828045
     32          1           0       -0.518319    7.792016   -6.231965
     33          1           0        0.916212    7.261461   -8.183634
     34          1           0        1.441343    8.947451   -8.295052
     35          1           0        2.602147    8.774968   -6.128450
     36          1           0        1.638531    5.862290   -6.094917
     37          1           0        2.901663    6.514165   -5.041158
     38          1           0        1.254663    7.133236   -4.904681
     39          1           0        3.808386    8.202837   -8.255060
     40          1           0        4.431602    7.272395   -6.882650
     41          1           0        3.350357    6.501103   -8.051726
     42          7           0        0.152471   11.026195   -6.534908
     43          6           0       -0.114163   12.213227   -5.735449
     44          6           0       -1.630424   12.499718   -5.832185
     45          8           0       -2.265966   12.117956   -6.836385
     46          6           0        0.757182   13.407695   -6.149194
     47          6           0        0.806730   14.472713   -5.047712
     48          7           0        1.606378   15.534745   -5.303941
     49          8           0        0.166758   14.371827   -4.001263
     50          1           0       -0.275824   11.060085   -7.452216
     51          1           0        0.123255   11.949773   -4.703095
     52          1           0        1.772459   13.040145   -6.340250
     53          1           0        0.400183   13.858690   -7.084467
     54          1           0        1.714841   16.238411   -4.585486
     55          1           0        2.202005   15.584598   -6.117379
     56          7           0       -2.200891   13.076120   -4.769647
     57          6           0       -3.643131   13.018200   -4.525444
     58          6           0       -4.095016   11.553796   -4.706439
     59          8           0       -5.105500   11.209570   -5.301470
     60          6           0       -4.462419   13.988413   -5.387978
     61          6           0       -5.916443   14.147127   -4.899244
     62          6           0       -6.920286   14.356858   -6.040984
     63          7           0       -7.009188   13.204190   -6.939758
     64          6           0       -6.455988   13.225838   -8.198012
     65          7           0       -5.842178   14.245984   -8.668933
     66          7           0       -6.615220   11.965144   -8.875762
     67          8           0       -3.231329   10.700238   -4.162098
     68          1           0       -3.417404    9.797148   -4.491512
     69          1           0       -1.565586   13.419685   -4.050683
     70          1           0       -3.776647   13.261446   -3.464484
     71          1           0       -4.435953   13.644925   -6.424022
     72          1           0       -3.951479   14.956365   -5.375027
     73          1           0       -6.225574   13.262441   -4.329647
     74          1           0       -5.991498   14.995288   -4.207600
     75          1           0       -7.915209   14.543732   -5.619839
     76          1           0       -6.644961   15.218177   -6.652392
     77          1           0       -7.014936   12.303535   -6.475447
     78          1           0       -5.610528   14.120603   -9.652179
     79          1           0       -6.508541   12.070544   -9.883291
     80          1           0       -7.527122   11.549954   -8.687137
 ---------------------------------------------------------------------

 SCF Done:  E(RB3LYP) =  -1866.74204864     A.U. after    2 cycles

 Alpha  occ. eigenvalues --  -19.29663 -19.25427 -19.25072 -19.24429 -19.22016
 Alpha  occ. eigenvalues --  -19.21558 -14.53139 -14.49336 -14.46782 -14.46102
 Alpha  occ. eigenvalues --  -14.45742 -14.45739 -14.43491 -14.37777 -10.43385
 Alpha  occ. eigenvalues --  -10.42484 -10.40444 -10.39712 -10.38530 -10.38322
 Alpha  occ. eigenvalues --  -10.37700 -10.34626 -10.33809 -10.33776 -10.33123
 Alpha  occ. eigenvalues --  -10.31747 -10.30739 -10.30599 -10.30427 -10.30302
 Alpha  occ. eigenvalues --  -10.30198 -10.30103 -10.29390 -10.28798 -10.27552
 Alpha  occ. eigenvalues --  -10.27060 -10.27020 -10.24587 -10.24023  -1.21458
 Alpha  occ. eigenvalues --   -1.17302  -1.15549  -1.13646  -1.13417  -1.12549
 Alpha  occ. eigenvalues --   -1.09285  -1.06983  -1.05672  -1.03813  -1.02363
 Alpha  occ. eigenvalues --   -1.00579  -0.98290  -0.97316  -0.93851  -0.92212
 Alpha  occ. eigenvalues --   -0.90366  -0.89726  -0.87864  -0.86130  -0.85771
 Alpha  occ. eigenvalues --   -0.83601  -0.83411  -0.78666  -0.78315  -0.77109
 Alpha  occ. eigenvalues --   -0.75562  -0.74720  -0.72780  -0.72331  -0.71747
 Alpha  occ. eigenvalues --   -0.70448  -0.70103  -0.69170  -0.68603  -0.68050
 Alpha  occ. eigenvalues --   -0.67839  -0.67627  -0.66687  -0.65922  -0.64292
 Alpha  occ. eigenvalues --   -0.64114  -0.63210  -0.62530  -0.62136  -0.61665
 Alpha  occ. eigenvalues --   -0.61168  -0.60281  -0.59760  -0.59639  -0.59017
 Alpha  occ. eigenvalues --   -0.58245  -0.57706  -0.57247  -0.56588  -0.56225
 Alpha  occ. eigenvalues --   -0.55407  -0.55266  -0.55223  -0.54396  -0.53912
 Alpha  occ. eigenvalues --   -0.53671  -0.53400  -0.53215  -0.53144  -0.52483
 Alpha  occ. eigenvalues --   -0.52363  -0.52042  -0.51600  -0.51532  -0.50891
 Alpha  occ. eigenvalues --   -0.50367  -0.49779  -0.49419  -0.48895  -0.48704
 Alpha  occ. eigenvalues --   -0.47685  -0.47376  -0.47109  -0.46964  -0.46785
 Alpha  occ. eigenvalues --   -0.46572  -0.45877  -0.45743  -0.45436  -0.45246
 Alpha  occ. eigenvalues --   -0.44486  -0.44286  -0.43829  -0.42792  -0.41953
 Alpha  occ. eigenvalues --   -0.41132  -0.40400  -0.40257  -0.39794  -0.39607
 Alpha  occ. eigenvalues --   -0.39001  -0.38413  -0.37890  -0.37062  -0.36682
 Alpha  occ. eigenvalues --   -0.36605  -0.36205  -0.35967  -0.35427  -0.34801
 Alpha  occ. eigenvalues --   -0.34254  -0.31389
 Alpha virt. eigenvalues --   -0.12619  -0.11638  -0.11584  -0.11092  -0.09532
 Alpha virt. eigenvalues --   -0.07976  -0.07481  -0.05153  -0.04564  -0.03217
 Alpha virt. eigenvalues --   -0.02459  -0.02035  -0.01504  -0.00424  -0.00069

 Mulliken charges:
               1
     1  N   -0.826167
     2  C   -0.097177
     3  C    0.681204
     4  O   -0.550548
     5  C   -0.398494
     6  C    0.146191
     7  C   -0.184209
     8  C   -0.182725
     9  C   -0.140816
    10  C   -0.156609
    11  C   -0.141391
    12  H    0.414407
    13  H    0.453407
    14  H    0.211002
    15  H    0.179619
    16  H    0.186155
    17  H    0.143254
    18  H    0.156229
    19  H    0.165665
    20  H    0.171365
    21  H    0.169097
    22  H    0.445131
    23  N   -0.651149
    24  C   -0.033436
    25  C    0.617143
    26  O   -0.485825
    27  C   -0.301266
    28  C   -0.081451
    29  C   -0.462987
    30  C   -0.446444
    31  H    0.347744
    32  H    0.208681
    33  H    0.157469
    34  H    0.132846
    35  H    0.149432
    36  H    0.139718
    37  H    0.160713
    38  H    0.174622
    39  H    0.140467
    40  H    0.162504
    41  H    0.148424
    42  N   -0.596891
    43  C   -0.075219
    44  C    0.632069
    45  O   -0.604020
    46  C   -0.392387
    47  C    0.628361
    48  N   -0.741147
    49  O   -0.522277
    50  H    0.327763
    51  H    0.228060
    52  H    0.199534
    53  H    0.179766
    54  H    0.364860
    55  H    0.353843
    56  N   -0.586671
    57  C   -0.047276
    58  C    0.601238
    59  O   -0.518857
    60  C   -0.261090
    61  C   -0.290509
    62  C   -0.141083
    63  N   -0.587209
    64  C    0.568174
    65  N   -0.638552
    66  N   -0.837440
    67  O   -0.544165
    68  H    0.451448
    69  H    0.396291
    70  H    0.199775
    71  H    0.177467
    72  H    0.163288
    73  H    0.148894
    74  H    0.157256
    75  H    0.160837
    76  H    0.204274
    77  H    0.333835
    78  H    0.285272
    79  H    0.357705
    80  H    0.342984
 Sum of Mulliken charges =   1.00000

 Dipole moment (field-independent basis, Debye):
    X=            -12.7369    Y=             55.6243    Z=            -41.2025  Tot=             70.3842
 Quadrupole moment (field-independent basis, Debye-Ang):
   XX=           -126.1414   YY=            451.9137   ZZ=            145.8654
   XY=           -130.6755   XZ=            119.1293   YZ=           -455.7233

 Normal termination of Gaussian 16 at Sat Jun 11 21:07:25 2022.
