 Gaussian 16, Revision C.01,
 Gaussian 16:  ES64L-G16RevC.01  3-Jul-2019

 ----------------------------------------------------------------------
 # B3LYP/6-31G* empiricaldispersion=gd3 guess=read geom=check nosymm in
 tegral(ultrafinegrid)
 ----------------------------------------------------------------------

 -----------------------------------------------------
 Candidate Structure: Conf:14 Charge calc in gas phase
 -----------------------------------------------------
 Structure from the checkpoint file:  "conf-14.chk"
 Charge =  1 Multiplicity = 1

                          Input orientation:
 ---------------------------------------------------------------------
 Center     Atomic      Atomic             Coordinates (Angstroms)
 Number     Number       Type             X           Y           Z
 ---------------------------------------------------------------------
      1          7           0       -3.019539    9.187448   -7.547509
      2          6           0       -4.098638    9.020130   -6.518692
      3          6           0       -5.122933   10.116595   -6.893903
      4          8           0       -5.206662   10.464549   -8.069478
      5          6           0       -3.491841    9.087901   -5.100938
      6          6           0       -2.207583    8.290033   -5.001457
      7          6           0       -2.228303    6.890199   -4.936747
      8          6           0       -0.973491    8.952687   -5.066553
      9          6           0       -1.034895    6.165809   -4.933840
     10          6           0        0.219998    8.227806   -5.066638
     11          6           0        0.190995    6.833271   -5.001895
     12          1           0       -2.508442   10.083564   -7.368543
     13          1           0       -3.441011    9.303835   -8.477017
     14          1           0       -4.549955    8.037495   -6.692671
     15          1           0       -4.240276    8.706075   -4.396236
     16          1           0       -3.292906   10.134181   -4.853899
     17          1           0       -3.179282    6.364646   -4.875423
     18          1           0       -0.953370   10.038037   -5.119298
     19          1           0       -1.062020    5.081813   -4.872963
     20          1           0        1.169575    8.753652   -5.112006
     21          1           0        1.118230    6.268102   -4.997847
     22          1           0       -2.341336    8.422486   -7.548809
     23          7           0       -5.841994   10.680871   -5.900075
     24          6           0       -6.692425   11.850373   -6.166529
     25          6           0       -5.869740   13.027770   -6.736017
     26          8           0       -6.367088   13.819637   -7.516762
     27          6           0       -7.445124   12.275373   -4.897857
     28          6           0       -8.396404   11.218898   -4.299225
     29          6           0       -9.051576   11.782757   -3.029802
     30          6           0       -9.457595   10.755357   -5.306449
     31          1           0       -5.748935   10.351728   -4.948999
     32          1           0       -7.393938   11.597297   -6.964087
     33          1           0       -6.712778   12.588151   -4.139238
     34          1           0       -8.020588   13.171080   -5.160689
     35          1           0       -7.804196   10.337888   -4.001460
     36          1           0       -9.674081   12.653387   -3.270112
     37          1           0       -9.694702   11.033772   -2.555810
     38          1           0       -8.302221   12.098825   -2.294415
     39          1           0      -10.043224   11.607684   -5.672624
     40          1           0       -9.016541   10.252510   -6.174359
     41          1           0      -10.152265   10.050658   -4.837269
     42          7           0       -4.581150   13.133008   -6.266640
     43          6           0       -3.574168   13.801004   -7.069736
     44          6           0       -2.428334   12.784246   -7.302496
     45          8           0       -2.447531   11.682606   -6.709763
     46          6           0       -3.115970   15.140290   -6.439334
     47          6           0       -2.617452   16.146724   -7.475720
     48          7           0       -2.741389   17.448360   -7.139305
     49          8           0       -2.114997   15.800787   -8.550174
     50          1           0       -4.216236   12.333048   -5.764950
     51          1           0       -4.026994   14.028356   -8.041540
     52          1           0       -3.974244   15.551109   -5.899154
     53          1           0       -2.322097   14.977467   -5.698802
     54          1           0       -2.428888   18.147867   -7.800148
     55          1           0       -3.227712   17.755127   -6.309949
     56          7           0       -1.476899   13.161743   -8.156220
     57          6           0       -0.353407   12.321017   -8.615435
     58          6           0       -0.948459   11.337713   -9.628856
     59          8           0       -1.325373   10.205194   -9.382911
     60          6           0        0.419172   11.629108   -7.477974
     61          6           0        1.888534   11.320688   -7.799198
     62          6           0        2.107559   10.310686   -8.929574
     63          7           0        1.577174   10.788910  -10.213267
     64          6           0        2.296989   11.769026  -10.918725
     65          7           0        3.331978   12.311231  -10.394664
     66          7           0        1.732968   11.998910  -12.178415
     67          8           0       -1.191536   11.931660  -10.818237
     68          1           0       -1.698372   11.295710  -11.359224
     69          1           0       -1.591122   14.102027   -8.562159
     70          1           0        0.309807   12.998016   -9.157109
     71          1           0       -0.104442   10.712434   -7.197555
     72          1           0        0.379893   12.294868   -6.608889
     73          1           0        2.430424   12.238797   -8.043977
     74          1           0        2.354203   10.912853   -6.892432
     75          1           0        3.177957   10.087158   -9.011868
     76          1           0        1.573708    9.380846   -8.701913
     77          1           0        1.277238   10.037722  -10.825798
     78          1           0        3.697837   13.063487  -10.979608
     79          1           0        2.149577   12.771688  -12.683628
     80          1           0        0.719749   12.059900  -12.167177
 ---------------------------------------------------------------------

 SCF Done:  E(RB3LYP) =  -1866.72139867     A.U. after    3 cycles

 Alpha  occ. eigenvalues --  -19.30810 -19.25369 -19.24783 -19.24522 -19.22609
 Alpha  occ. eigenvalues --  -19.20857 -14.55385 -14.48912 -14.47210 -14.46214
 Alpha  occ. eigenvalues --  -14.45077 -14.42833 -14.42019 -14.36360 -10.43674
 Alpha  occ. eigenvalues --  -10.41966 -10.41164 -10.40134 -10.38483 -10.38032
 Alpha  occ. eigenvalues --  -10.35620 -10.34508 -10.34365 -10.33436 -10.32573
 Alpha  occ. eigenvalues --  -10.30901 -10.30756 -10.29642 -10.29408 -10.29321
 Alpha  occ. eigenvalues --  -10.29224 -10.29210 -10.28977 -10.28532 -10.28179
 Alpha  occ. eigenvalues --  -10.28030 -10.26248 -10.25354 -10.25239  -1.21779
 Alpha  occ. eigenvalues --   -1.17161  -1.15955  -1.14150  -1.12902  -1.12698
 Alpha  occ. eigenvalues --   -1.10604  -1.05226  -1.05160  -1.04127  -1.02042
 Alpha  occ. eigenvalues --   -1.01015  -0.96430  -0.96330  -0.91960  -0.91843
 Alpha  occ. eigenvalues --   -0.90292  -0.89949  -0.87789  -0.85822  -0.84782
 Alpha  occ. eigenvalues --   -0.83624  -0.83570  -0.78617  -0.78228  -0.77030
 Alpha  occ. eigenvalues --   -0.76377  -0.74755  -0.72459  -0.72221  -0.71256
 Alpha  occ. eigenvalues --   -0.70760  -0.70415  -0.69320  -0.69148  -0.68496
 Alpha  occ. eigenvalues --   -0.67904  -0.66792  -0.65846  -0.65263  -0.64175
 Alpha  occ. eigenvalues --   -0.63823  -0.63163  -0.61813  -0.61759  -0.61250
 Alpha  occ. eigenvalues --   -0.60844  -0.60154  -0.59618  -0.59275  -0.58892
 Alpha  occ. eigenvalues --   -0.58379  -0.57805  -0.56559  -0.56071  -0.55814
 Alpha  occ. eigenvalues --   -0.55294  -0.54761  -0.54682  -0.54398  -0.54217
 Alpha  occ. eigenvalues --   -0.53282  -0.52978  -0.52680  -0.52458  -0.52280
 Alpha  occ. eigenvalues --   -0.52042  -0.51792  -0.51488  -0.50985  -0.50558
 Alpha  occ. eigenvalues --   -0.50275  -0.49960  -0.49376  -0.49046  -0.48139
 Alpha  occ. eigenvalues --   -0.48096  -0.47494  -0.47057  -0.46763  -0.46346
 Alpha  occ. eigenvalues --   -0.46267  -0.46049  -0.45672  -0.44772  -0.44524
 Alpha  occ. eigenvalues --   -0.44418  -0.43871  -0.43375  -0.42912  -0.42023
 Alpha  occ. eigenvalues --   -0.41519  -0.41404  -0.41137  -0.40427  -0.39130
 Alpha  occ. eigenvalues --   -0.38702  -0.38432  -0.37590  -0.36847  -0.36691
 Alpha  occ. eigenvalues --   -0.35464  -0.35283  -0.35061  -0.34444  -0.33940
 Alpha  occ. eigenvalues --   -0.32893  -0.30972
 Alpha virt. eigenvalues --   -0.11896  -0.11358  -0.10762  -0.10571  -0.09067
 Alpha virt. eigenvalues --   -0.08181  -0.07143  -0.05121  -0.04273  -0.03502
 Alpha virt. eigenvalues --   -0.02640  -0.02106  -0.01730  -0.01158  -0.00560

 Mulliken charges:
               1
     1  N   -0.764367
     2  C   -0.098626
     3  C    0.654733
     4  O   -0.521316
     5  C   -0.393120
     6  C    0.115284
     7  C   -0.188963
     8  C   -0.202466
     9  C   -0.126809
    10  C   -0.131498
    11  C   -0.125617
    12  H    0.469465
    13  H    0.412050
    14  H    0.215692
    15  H    0.178963
    16  H    0.191704
    17  H    0.141138
    18  H    0.163185
    19  H    0.161922
    20  H    0.157119
    21  H    0.162075
    22  H    0.405043
    23  N   -0.649196
    24  C   -0.026060
    25  C    0.600349
    26  O   -0.493857
    27  C   -0.307138
    28  C   -0.079534
    29  C   -0.444008
    30  C   -0.452254
    31  H    0.352349
    32  H    0.208354
    33  H    0.139456
    34  H    0.183797
    35  H    0.107627
    36  H    0.157788
    37  H    0.160422
    38  H    0.144849
    39  H    0.160689
    40  H    0.146060
    41  H    0.161904
    42  N   -0.609112
    43  C   -0.059467
    44  C    0.618870
    45  O   -0.611053
    46  C   -0.380072
    47  C    0.637402
    48  N   -0.735715
    49  O   -0.532680
    50  H    0.343269
    51  H    0.222277
    52  H    0.193804
    53  H    0.191945
    54  H    0.366659
    55  H    0.359047
    56  N   -0.627366
    57  C   -0.014913
    58  C    0.656196
    59  O   -0.528389
    60  C   -0.278510
    61  C   -0.280874
    62  C   -0.115692
    63  N   -0.633635
    64  C    0.575297
    65  N   -0.629032
    66  N   -0.763240
    67  O   -0.569069
    68  H    0.420991
    69  H    0.410554
    70  H    0.197260
    71  H    0.149051
    72  H    0.150846
    73  H    0.191825
    74  H    0.142680
    75  H    0.178623
    76  H    0.134561
    77  H    0.333248
    78  H    0.281524
    79  H    0.330180
    80  H    0.335521
 Sum of Mulliken charges =   1.00000

 Dipole moment (field-independent basis, Debye):
    X=            -13.5867    Y=             53.1508    Z=            -31.8902  Tot=             63.4554
 Quadrupole moment (field-independent basis, Debye-Ang):
   XX=           -166.0816   YY=            440.0095   ZZ=             18.9699
   XY=           -144.3098   XZ=             60.0562   YZ=           -354.0302

 Normal termination of Gaussian 16 at Sat Jun 11 21:07:40 2022.
