 Gaussian 16, Revision C.01,
 Gaussian 16:  ES64L-G16RevC.01  3-Jul-2019

 ----------------------------------------------------------------------
 # B3LYP/6-31G* empiricaldispersion=gd3 guess=read geom=check nosymm in
 tegral(ultrafinegrid)
 ----------------------------------------------------------------------

 -----------------------------------------------------
 Candidate Structure: Conf:34 Charge calc in gas phase
 -----------------------------------------------------
 Structure from the checkpoint file:  "conf-34.chk"
 Charge =  1 Multiplicity = 1

                          Input orientation:
 ---------------------------------------------------------------------
 Center     Atomic      Atomic             Coordinates (Angstroms)
 Number     Number       Type             X           Y           Z
 ---------------------------------------------------------------------
      1          7           0       -3.731967    9.834145   -7.065933
      2          6           0       -5.232264    9.647668   -7.095266
      3          6           0       -5.657339    9.788787   -8.569153
      4          8           0       -6.069851    8.824526   -9.187058
      5          6           0       -5.903965   10.606291   -6.102136
      6          6           0       -5.319938   10.516940   -4.704714
      7          6           0       -5.271300    9.292518   -4.021277
      8          6           0       -4.811163   11.660766   -4.077704
      9          6           0       -4.722410    9.215388   -2.740878
     10          6           0       -4.277037   11.588276   -2.789305
     11          6           0       -4.225617   10.364590   -2.120432
     12          1           0       -3.439800   10.831694   -7.191739
     13          1           0       -3.275660    9.343990   -7.848348
     14          1           0       -5.420982    8.608367   -6.824480
     15          1           0       -6.972619   10.358991   -6.099638
     16          1           0       -5.825334   11.637246   -6.466125
     17          1           0       -5.683048    8.395446   -4.479093
     18          1           0       -4.843903   12.616946   -4.594573
     19          1           0       -4.696698    8.261419   -2.222371
     20          1           0       -3.902782   12.487817   -2.309815
     21          1           0       -3.809373   10.307206   -1.119018
     22          1           0       -3.294785    9.532102   -6.185846
     23          7           0       -5.442719   11.028928   -9.121284
     24          6           0       -4.938405   11.110239  -10.505021
     25          6           0       -3.410656   11.164235  -10.294643
     26          8           0       -2.810414   10.186158   -9.844475
     27          6           0       -5.597087   12.237355  -11.299716
     28          6           0       -7.125880   12.088821  -11.451784
     29          6           0       -7.680275   13.274414  -12.253888
     30          6           0       -7.522890   10.751343  -12.094517
     31          1           0       -5.037126   11.736409   -8.515648
     32          1           0       -5.151087   10.146748  -10.968854
     33          1           0       -5.398244   13.205741  -10.813465
     34          1           0       -5.131086   12.275126  -12.294353
     35          1           0       -7.557985   12.122798  -10.442238
     36          1           0       -7.288108   13.271436  -13.278951
     37          1           0       -8.772313   13.224319  -12.317211
     38          1           0       -7.415357   14.234818  -11.794589
     39          1           0       -7.026361   10.618729  -13.064894
     40          1           0       -7.272709    9.896365  -11.457683
     41          1           0       -8.603362   10.721701  -12.270981
     42          7           0       -2.790697   12.364175  -10.470294
     43          6           0       -1.520661   12.593554   -9.806721
     44          6           0       -1.708330   12.413505   -8.265027
     45          8           0       -2.849281   12.341316   -7.767996
     46          6           0       -0.950185   13.966260  -10.210745
     47          6           0        0.578142   14.030962  -10.107465
     48          7           0        1.152729   15.091101  -10.715272
     49          8           0        1.240574   13.181504   -9.508750
     50          1           0       -3.373805   13.168423  -10.659155
     51          1           0       -0.827965   11.812274  -10.130659
     52          1           0       -1.238180   14.168019  -11.249754
     53          1           0       -1.381730   14.769411   -9.599110
     54          1           0        2.159723   15.180768  -10.676781
     55          1           0        0.631532   15.765164  -11.256679
     56          7           0       -0.562818   12.327324   -7.581033
     57          6           0       -0.389606   11.996266   -6.151556
     58          6           0       -0.354979   10.465260   -6.089131
     59          8           0       -1.302826    9.736913   -5.850607
     60          6           0       -1.433387   12.624175   -5.215626
     61          6           0       -0.947436   12.813084   -3.771353
     62          6           0       -0.620664   11.521044   -3.017024
     63          7           0        0.490856   10.783167   -3.632528
     64          6           0        1.803131   11.251348   -3.443756
     65          7           0        2.011823   12.364778   -2.846720
     66          7           0        2.738953   10.349748   -3.962596
     67          8           0        0.823183    9.976345   -6.536954
     68          1           0        0.722538    9.007648   -6.612527
     69          1           0        0.290434   12.417386   -8.143657
     70          1           0        0.606617   12.360176   -5.890608
     71          1           0       -2.343770   12.021230   -5.230967
     72          1           0       -1.698362   13.601979   -5.630121
     73          1           0       -0.068899   13.464251   -3.743154
     74          1           0       -1.739753   13.331176   -3.217024
     75          1           0       -0.391136   11.762639   -1.972085
     76          1           0       -1.487347   10.852699   -3.038708
     77          1           0        0.431502    9.781111   -3.483674
     78          1           0        3.000904   12.616909   -2.859416
     79          1           0        3.693361   10.688582   -3.948942
     80          1           0        2.485665    9.974026   -4.870815
 ---------------------------------------------------------------------

 SCF Done:  E(RB3LYP) =  -1866.71590149     A.U. after    3 cycles

 Alpha  occ. eigenvalues --  -19.31223 -19.25863 -19.24938 -19.23915 -19.23385
 Alpha  occ. eigenvalues --  -19.23337 -14.54728 -14.48080 -14.47893 -14.47503
 Alpha  occ. eigenvalues --  -14.47108 -14.43074 -14.42308 -14.36620 -10.44161
 Alpha  occ. eigenvalues --  -10.41708 -10.41645 -10.40523 -10.40374 -10.37147
 Alpha  occ. eigenvalues --  -10.35939 -10.35873 -10.34923 -10.33744 -10.32977
 Alpha  occ. eigenvalues --  -10.31829 -10.30380 -10.29241 -10.29084 -10.29008
 Alpha  occ. eigenvalues --  -10.28754 -10.28717 -10.28712 -10.28501 -10.28112
 Alpha  occ. eigenvalues --  -10.27237 -10.26333 -10.24814 -10.24347  -1.22227
 Alpha  occ. eigenvalues --   -1.16787  -1.15634  -1.15438  -1.14665  -1.13171
 Alpha  occ. eigenvalues --   -1.10160  -1.05401  -1.04724  -1.04615  -1.03749
 Alpha  occ. eigenvalues --   -1.02382  -0.96554  -0.95891  -0.92119  -0.91826
 Alpha  occ. eigenvalues --   -0.90858  -0.89724  -0.88804  -0.85277  -0.84361
 Alpha  occ. eigenvalues --   -0.83976  -0.83322  -0.79476  -0.77618  -0.77303
 Alpha  occ. eigenvalues --   -0.75790  -0.75099  -0.73230  -0.71495  -0.71081
 Alpha  occ. eigenvalues --   -0.70690  -0.69968  -0.69866  -0.68996  -0.68686
 Alpha  occ. eigenvalues --   -0.67744  -0.67069  -0.65985  -0.65401  -0.64706
 Alpha  occ. eigenvalues --   -0.64001  -0.63582  -0.62316  -0.61960  -0.61843
 Alpha  occ. eigenvalues --   -0.60985  -0.60718  -0.60299  -0.59657  -0.59275
 Alpha  occ. eigenvalues --   -0.58392  -0.57663  -0.57231  -0.56496  -0.55677
 Alpha  occ. eigenvalues --   -0.55604  -0.54843  -0.54431  -0.54358  -0.54183
 Alpha  occ. eigenvalues --   -0.53905  -0.53290  -0.53105  -0.52735  -0.52451
 Alpha  occ. eigenvalues --   -0.52255  -0.51905  -0.51666  -0.51359  -0.50691
 Alpha  occ. eigenvalues --   -0.50494  -0.50062  -0.49680  -0.49270  -0.48924
 Alpha  occ. eigenvalues --   -0.48678  -0.47630  -0.47214  -0.46949  -0.46437
 Alpha  occ. eigenvalues --   -0.46241  -0.45800  -0.45664  -0.44679  -0.44289
 Alpha  occ. eigenvalues --   -0.44180  -0.43818  -0.43656  -0.43095  -0.42059
 Alpha  occ. eigenvalues --   -0.41692  -0.40963  -0.40657  -0.40530  -0.39497
 Alpha  occ. eigenvalues --   -0.38815  -0.38624  -0.37906  -0.37430  -0.37145
 Alpha  occ. eigenvalues --   -0.36793  -0.35246  -0.34876  -0.34666  -0.34450
 Alpha  occ. eigenvalues --   -0.33144  -0.31221
 Alpha virt. eigenvalues --   -0.12987  -0.11743  -0.10588  -0.10144  -0.09597
 Alpha virt. eigenvalues --   -0.09401  -0.07934  -0.04611  -0.03883  -0.03119
 Alpha virt. eigenvalues --   -0.02889  -0.02808  -0.01594  -0.00851  -0.00138

 Mulliken charges:
               1
     1  N   -0.804484
     2  C   -0.109320
     3  C    0.605867
     4  O   -0.464022
     5  C   -0.370733
     6  C    0.138446
     7  C   -0.196233
     8  C   -0.189351
     9  C   -0.125138
    10  C   -0.126164
    11  C   -0.130088
    12  H    0.449401
    13  H    0.423954
    14  H    0.216029
    15  H    0.209462
    16  H    0.167157
    17  H    0.145608
    18  H    0.144708
    19  H    0.159420
    20  H    0.157876
    21  H    0.159680
    22  H    0.430006
    23  N   -0.591028
    24  C   -0.080220
    25  C    0.613150
    26  O   -0.552101
    27  C   -0.289657
    28  C   -0.068416
    29  C   -0.447132
    30  C   -0.472397
    31  H    0.341844
    32  H    0.224751
    33  H    0.120516
    34  H    0.156895
    35  H    0.140508
    36  H    0.148532
    37  H    0.162488
    38  H    0.138489
    39  H    0.144322
    40  H    0.173993
    41  H    0.160998
    42  N   -0.605617
    43  C   -0.031826
    44  C    0.621111
    45  O   -0.593937
    46  C   -0.422299
    47  C    0.637338
    48  N   -0.736897
    49  O   -0.522034
    50  H    0.347083
    51  H    0.221853
    52  H    0.194096
    53  H    0.201035
    54  H    0.370557
    55  H    0.359517
    56  N   -0.626269
    57  C   -0.020296
    58  C    0.662335
    59  O   -0.528261
    60  C   -0.277228
    61  C   -0.280963
    62  C   -0.125576
    63  N   -0.636212
    64  C    0.576324
    65  N   -0.628635
    66  N   -0.762558
    67  O   -0.571535
    68  H    0.422549
    69  H    0.405826
    70  H    0.197077
    71  H    0.150894
    72  H    0.153184
    73  H    0.189257
    74  H    0.141366
    75  H    0.174081
    76  H    0.147318
    77  H    0.334059
    78  H    0.281125
    79  H    0.330128
    80  H    0.334413
 Sum of Mulliken charges =   1.00000

 Dipole moment (field-independent basis, Debye):
    X=             -9.5129    Y=             58.9535    Z=            -37.8812  Tot=             70.7177
 Quadrupole moment (field-independent basis, Debye-Ang):
   XX=           -160.4012   YY=            528.1166   ZZ=            115.2781
   XY=           -111.1982   XZ=             68.2534   YZ=           -507.7395

 Normal termination of Gaussian 16 at Sat Jun 11 21:07:45 2022.
