 Gaussian 16, Revision C.01,
 Gaussian 16:  ES64L-G16RevC.01  3-Jul-2019

 ----------------------------------------------------------------------
 # B3LYP/6-31G* empiricaldispersion=gd3 guess=read geom=check nosymm in
 tegral(ultrafinegrid)
 ----------------------------------------------------------------------

 ------------------------------------------------------
 Candidate Structure: Conf:684 Charge calc in gas phase
 ------------------------------------------------------
 Structure from the checkpoint file:  "conf-684.chk"
 Charge =  1 Multiplicity = 1

                          Input orientation:
 ---------------------------------------------------------------------
 Center     Atomic      Atomic             Coordinates (Angstroms)
 Number     Number       Type             X           Y           Z
 ---------------------------------------------------------------------
      1          7           0       -1.749304   12.909149   -8.083600
      2          6           0       -1.467081   11.840146   -9.086704
      3          6           0       -2.848240   11.209421   -9.391759
      4          8           0       -3.843712   11.932964   -9.391170
      5          6           0       -0.386946   10.885726   -8.552903
      6          6           0        0.885684   11.591351   -8.127527
      7          6           0        1.639174   12.329568   -9.051665
      8          6           0        1.322257   11.521870   -6.800023
      9          6           0        2.803129   12.989456   -8.655544
     10          6           0        2.499656   12.163924   -6.404121
     11          6           0        3.238571   12.906185   -7.328529
     12          1           0       -2.553941   13.479116   -8.380261
     13          1           0       -0.947897   13.559648   -7.855298
     14          1           0       -1.118198   12.341568   -9.995730
     15          1           0       -0.150710   10.163744   -9.345552
     16          1           0       -0.804675   10.329433   -7.706678
     17          1           0        1.324718   12.381766  -10.091988
     18          1           0        0.742248   10.963173   -6.069999
     19          1           0        3.378540   13.553963   -9.383425
     20          1           0        2.839244   12.081192   -5.375302
     21          1           0        4.152556   13.405913   -7.021777
     22          1           0       -2.080980   12.465063   -7.203253
     23          7           0       -2.899312    9.881025   -9.623333
     24          6           0       -4.180346    9.171270   -9.732936
     25          6           0       -4.924443    9.126656   -8.379600
     26          8           0       -6.140081    9.162777   -8.342657
     27          6           0       -3.970735    7.753414  -10.283772
     28          6           0       -3.339291    7.674611  -11.688531
     29          6           0       -3.163189    6.202232  -12.087861
     30          6           0       -4.162343    8.434059  -12.738049
     31          1           0       -2.047378    9.338826   -9.653347
     32          1           0       -4.833505    9.747975  -10.389359
     33          1           0       -3.361281    7.181502   -9.568499
     34          1           0       -4.956280    7.272882  -10.300814
     35          1           0       -2.336990    8.131138  -11.648379
     36          1           0       -4.136622    5.702130  -12.162113
     37          1           0       -2.669888    6.117589  -13.061923
     38          1           0       -2.559752    5.653846  -11.354759
     39          1           0       -5.189736    8.051345  -12.776977
     40          1           0       -4.211307    9.509122  -12.531495
     41          1           0       -3.723405    8.311715  -13.733879
     42          7           0       -4.123806    8.978899   -7.260881
     43          6           0       -4.622056    9.445908   -5.975040
     44          6           0       -4.069707   10.875313   -5.770085
     45          8           0       -3.009939   11.212838   -6.337655
     46          6           0       -4.277682    8.489736   -4.823248
     47          6           0       -5.170004    8.737612   -3.602013
     48          7           0       -4.992233    7.879407   -2.570138
     49          8           0       -5.992745    9.652302   -3.558148
     50          1           0       -3.146523    9.201019   -7.406831
     51          1           0       -5.708789    9.502043   -6.065330
     52          1           0       -4.427385    7.462885   -5.177177
     53          1           0       -3.222185    8.576000   -4.533434
     54          1           0       -5.594640    7.968609   -1.762516
     55          1           0       -4.388189    7.072925   -2.630567
     56          7           0       -4.822171   11.713370   -5.051047
     57          6           0       -4.665508   13.167018   -5.125388
     58          6           0       -4.618605   13.561487   -6.616512
     59          8           0       -3.835279   14.367835   -7.095809
     60          6           0       -3.457896   13.705753   -4.345553
     61          6           0       -3.489157   15.237529   -4.168906
     62          6           0       -2.095347   15.879331   -4.196958
     63          7           0       -1.420977   15.722641   -5.487418
     64          6           0       -0.384364   14.835943   -5.657688
     65          7           0        0.064323   14.102027   -4.709363
     66          7           0        0.083161   14.812090   -7.019652
     67          8           0       -5.517223   12.890634   -7.333607
     68          1           0       -5.306960   12.986522   -8.285099
     69          1           0       -5.617403   11.298556   -4.566395
     70          1           0       -5.590951   13.589032   -4.715406
     71          1           0       -2.544043   13.391789   -4.853673
     72          1           0       -3.447670   13.212730   -3.368319
     73          1           0       -4.095149   15.700106   -4.957255
     74          1           0       -3.974588   15.498149   -3.220329
     75          1           0       -2.184806   16.950896   -3.982747
     76          1           0       -1.444463   15.436875   -3.440565
     77          1           0       -2.013911   15.868082   -6.296185
     78          1           0        0.906179   13.603355   -4.990136
     79          1           0        1.024384   14.427405   -7.080752
     80          1           0        0.085879   15.744513   -7.432054
 ---------------------------------------------------------------------

 SCF Done:  E(RB3LYP) =  -1866.74124686     A.U. after    3 cycles

 Alpha  occ. eigenvalues --  -19.29707 -19.25457 -19.25097 -19.24440 -19.21942
 Alpha  occ. eigenvalues --  -19.21263 -14.53164 -14.49343 -14.46764 -14.46104
 Alpha  occ. eigenvalues --  -14.45648 -14.45522 -14.43491 -14.37786 -10.43413
 Alpha  occ. eigenvalues --  -10.42518 -10.40444 -10.39620 -10.38348 -10.38342
 Alpha  occ. eigenvalues --  -10.37705 -10.34628 -10.33728 -10.33676 -10.33154
 Alpha  occ. eigenvalues --  -10.31769 -10.30620 -10.30591 -10.30443 -10.30321
 Alpha  occ. eigenvalues --  -10.30216 -10.30120 -10.29393 -10.28690 -10.28235
 Alpha  occ. eigenvalues --  -10.27529 -10.27014 -10.25461 -10.25316  -1.21497
 Alpha  occ. eigenvalues --   -1.17309  -1.15553  -1.13562  -1.13196  -1.12577
 Alpha  occ. eigenvalues --   -1.09310  -1.06985  -1.05694  -1.03804  -1.02195
 Alpha  occ. eigenvalues --   -1.00488  -0.98289  -0.97336  -0.93857  -0.92276
 Alpha  occ. eigenvalues --   -0.90472  -0.89861  -0.87889  -0.86238  -0.85799
 Alpha  occ. eigenvalues --   -0.83855  -0.83588  -0.78749  -0.78228  -0.77103
 Alpha  occ. eigenvalues --   -0.76483  -0.74874  -0.72824  -0.72372  -0.71809
 Alpha  occ. eigenvalues --   -0.70444  -0.70110  -0.69193  -0.68519  -0.67962
 Alpha  occ. eigenvalues --   -0.67800  -0.67621  -0.66671  -0.66019  -0.65330
 Alpha  occ. eigenvalues --   -0.63793  -0.63317  -0.62537  -0.62107  -0.61591
 Alpha  occ. eigenvalues --   -0.61129  -0.60250  -0.60027  -0.59634  -0.59066
 Alpha  occ. eigenvalues --   -0.58192  -0.57554  -0.57223  -0.56586  -0.56204
 Alpha  occ. eigenvalues --   -0.55445  -0.55318  -0.55202  -0.54485  -0.54005
 Alpha  occ. eigenvalues --   -0.53605  -0.53404  -0.53250  -0.53152  -0.52708
 Alpha  occ. eigenvalues --   -0.52455  -0.52108  -0.51891  -0.51511  -0.51390
 Alpha  occ. eigenvalues --   -0.50232  -0.49763  -0.49328  -0.48723  -0.48234
 Alpha  occ. eigenvalues --   -0.47946  -0.47554  -0.47292  -0.47082  -0.46948
 Alpha  occ. eigenvalues --   -0.46775  -0.46312  -0.45999  -0.45737  -0.45274
 Alpha  occ. eigenvalues --   -0.44844  -0.44480  -0.43842  -0.42790  -0.41977
 Alpha  occ. eigenvalues --   -0.41667  -0.41493  -0.41276  -0.39806  -0.39667
 Alpha  occ. eigenvalues --   -0.39093  -0.38404  -0.37894  -0.37027  -0.36665
 Alpha  occ. eigenvalues --   -0.36556  -0.36153  -0.35983  -0.35260  -0.34811
 Alpha  occ. eigenvalues --   -0.34065  -0.31393
 Alpha virt. eigenvalues --   -0.12638  -0.11654  -0.11601  -0.11115  -0.09466
 Alpha virt. eigenvalues --   -0.07767  -0.07370  -0.05392  -0.04585  -0.03303
 Alpha virt. eigenvalues --   -0.02472  -0.02054  -0.01408  -0.00462  -0.00148

 Mulliken charges:
               1
     1  N   -0.825646
     2  C   -0.097210
     3  C    0.677320
     4  O   -0.550697
     5  C   -0.398995
     6  C    0.146287
     7  C   -0.184216
     8  C   -0.183275
     9  C   -0.140500
    10  C   -0.156388
    11  C   -0.141475
    12  H    0.413755
    13  H    0.453151
    14  H    0.210893
    15  H    0.179632
    16  H    0.186770
    17  H    0.143063
    18  H    0.156711
    19  H    0.165629
    20  H    0.171445
    21  H    0.169146
    22  H    0.445614
    23  N   -0.644033
    24  C   -0.039891
    25  C    0.602342
    26  O   -0.480259
    27  C   -0.304657
    28  C   -0.075486
    29  C   -0.444277
    30  C   -0.453290
    31  H    0.349784
    32  H    0.208594
    33  H    0.138803
    34  H    0.185878
    35  H    0.107064
    36  H    0.158793
    37  H    0.160099
    38  H    0.144218
    39  H    0.161193
    40  H    0.145325
    41  H    0.161768
    42  N   -0.599346
    43  C   -0.075084
    44  C    0.630893
    45  O   -0.604929
    46  C   -0.390633
    47  C    0.628557
    48  N   -0.740956
    49  O   -0.523206
    50  H    0.329364
    51  H    0.228058
    52  H    0.199855
    53  H    0.180265
    54  H    0.364674
    55  H    0.353931
    56  N   -0.587047
    57  C   -0.047106
    58  C    0.601249
    59  O   -0.518734
    60  C   -0.261549
    61  C   -0.290305
    62  C   -0.141210
    63  N   -0.587044
    64  C    0.568417
    65  N   -0.638450
    66  N   -0.837470
    67  O   -0.545102
    68  H    0.450848
    69  H    0.397015
    70  H    0.199850
    71  H    0.178524
    72  H    0.163315
    73  H    0.148631
    74  H    0.157306
    75  H    0.160791
    76  H    0.204160
    77  H    0.333831
    78  H    0.285040
    79  H    0.357738
    80  H    0.342875
 Sum of Mulliken charges =   1.00000

 Dipole moment (field-independent basis, Debye):
    X=             -6.1014    Y=             53.5362    Z=            -35.0990  Tot=             64.3062
 Quadrupole moment (field-independent basis, Debye-Ang):
   XX=           -202.5339   YY=            426.6121   ZZ=             77.4364
   XY=            -52.0583   XZ=             21.6745   YZ=           -402.8356

 Normal termination of Gaussian 16 at Sat Jun 11 21:08:02 2022.
