 Gaussian 16, Revision C.01,
 Gaussian 16:  ES64L-G16RevC.01  3-Jul-2019

 ----------------------------------------------------------------------
 # B3LYP/6-31G* empiricaldispersion=gd3 guess=read geom=check nosymm in
 tegral(ultrafinegrid)
 ----------------------------------------------------------------------

 ------------------------------------------------------
 Candidate Structure: Conf:962 Charge calc in gas phase
 ------------------------------------------------------
 Structure from the checkpoint file:  "conf-962.chk"
 Charge =  1 Multiplicity = 1

                          Input orientation:
 ---------------------------------------------------------------------
 Center     Atomic      Atomic             Coordinates (Angstroms)
 Number     Number       Type             X           Y           Z
 ---------------------------------------------------------------------
      1          7           0       -1.889871   12.772142   -5.368422
      2          6           0       -1.885252   11.685877   -4.339379
      3          6           0       -0.693042   10.771808   -4.684341
      4          8           0        0.416855   11.025282   -4.245407
      5          6           0       -3.250270   10.989512   -4.220326
      6          6           0       -4.373703   11.882829   -3.730327
      7          6           0       -4.240311   12.639773   -2.555337
      8          6           0       -5.586255   11.948933   -4.429704
      9          6           0       -5.282806   13.449943   -2.099699
     10          6           0       -6.640101   12.742823   -3.969095
     11          6           0       -6.492061   13.501806   -2.804664
     12          1           0       -1.066903   13.351401   -5.185904
     13          1           0       -3.266246   14.045585   -5.395901
     14          1           0       -1.628976   12.149112   -3.384590
     15          1           0       -3.129133   10.145417   -3.527953
     16          1           0       -3.542114   10.558101   -5.182640
     17          1           0       -3.320762   12.588055   -1.978371
     18          1           0       -5.726402   11.361669   -5.333663
     19          1           0       -5.163754   14.015455   -1.179681
     20          1           0       -7.579926   12.754841   -4.514569
     21          1           0       -7.320319   14.095026   -2.424128
     22          1           0       -1.655029   12.337570   -6.263678
     23          7           0       -0.933725    9.775702   -5.606506
     24          6           0        0.135499    9.380974   -6.535201
     25          6           0       -0.121710   10.247442   -7.786722
     26          8           0       -0.126914   11.482684   -7.668165
     27          6           0        0.199651    7.861139   -6.716720
     28          6           0        1.423966    7.335808   -7.498842
     29          6           0        2.737225    7.610926   -6.750708
     30          6           0        1.259100    5.833723   -7.771268
     31          1           0       -1.873557    9.695166   -5.980064
     32          1           0        1.060032    9.748957   -6.085580
     33          1           0        0.207696    7.421065   -5.712496
     34          1           0       -0.732677    7.505680   -7.183857
     35          1           0        1.478618    7.852316   -8.468578
     36          1           0        2.922054    8.680701   -6.605842
     37          1           0        2.726677    7.135004   -5.762294
     38          1           0        3.588641    7.205435   -7.307491
     39          1           0        1.200885    5.272821   -6.830273
     40          1           0        0.346215    5.622596   -8.342053
     41          1           0        2.109285    5.442283   -8.339844
     42          7           0       -0.460587    9.643292   -8.952207
     43          6           0       -1.066285   10.415234  -10.044635
     44          6           0       -2.556284   10.631157   -9.702112
     45          8           0       -3.471072   10.007331  -10.222513
     46          6           0       -0.923364    9.742659  -11.400384
     47          6           0       -1.421464   10.717142  -12.477014
     48          7           0       -1.465325   10.215649  -13.737390
     49          8           0       -1.729168   11.872758  -12.206205
     50          1           0       -0.575450    8.638974   -8.966210
     51          1           0       -0.565420   11.383653  -10.069964
     52          1           0        0.126125    9.486874  -11.586520
     53          1           0       -1.516570    8.821691  -11.437596
     54          1           0       -1.826934   10.804891  -14.474652
     55          1           0       -1.296885    9.241822  -13.940886
     56          7           0       -2.744614   11.516612   -8.683841
     57          6           0       -4.057655   11.796048   -8.143206
     58          6           0       -4.838172   10.528784   -7.806547
     59          8           0       -6.041443   10.438083   -7.834695
     60          6           0       -4.856951   12.750426   -9.042234
     61          6           0       -4.098793   14.054116   -9.329494
     62          6           0       -3.681280   14.843210   -8.081527
     63          7           0       -4.859989   15.158584   -7.259282
     64          6           0       -4.945808   15.206436   -5.923844
     65          7           0       -3.975527   14.762796   -5.128464
     66          7           0       -6.043349   15.761379   -5.359962
     67          8           0       -4.033936    9.543993   -7.314545
     68          1           0       -4.620357    8.787975   -7.118152
     69          1           0       -1.914206   11.957487   -8.303012
     70          1           0       -3.897108   12.265545   -7.163048
     71          1           0       -5.824042   12.945542   -8.567449
     72          1           0       -5.061646   12.237036   -9.985958
     73          1           0       -3.194423   13.837391   -9.908658
     74          1           0       -4.719806   14.695168   -9.969178
     75          1           0       -2.978716   14.270822   -7.473089
     76          1           0       -3.177976   15.774906   -8.364637
     77          1           0       -5.672002   15.470851   -7.776184
     78          1           0       -4.160073   14.773403   -4.131500
     79          1           0       -6.322696   15.433630   -4.443070
     80          1           0       -6.773983   16.154338   -5.935523
 ---------------------------------------------------------------------

 SCF Done:  E(RB3LYP) =  -1866.73169539     A.U. after    1 cycles

 Alpha  occ. eigenvalues --  -19.30411 -19.24390 -19.22346 -19.21263 -19.20748
 Alpha  occ. eigenvalues --  -19.19423 -14.51632 -14.50697 -14.48788 -14.47362
 Alpha  occ. eigenvalues --  -14.45447 -14.45302 -14.45241 -14.43603 -10.47075
 Alpha  occ. eigenvalues --  -10.42627 -10.39447 -10.38092 -10.37917 -10.37369
 Alpha  occ. eigenvalues --  -10.35476 -10.34779 -10.33402 -10.32935 -10.32522
 Alpha  occ. eigenvalues --  -10.31041 -10.30316 -10.30261 -10.30180 -10.30049
 Alpha  occ. eigenvalues --  -10.29999 -10.29926 -10.29823 -10.28908 -10.28861
 Alpha  occ. eigenvalues --  -10.27650 -10.27358 -10.24851 -10.24562  -1.20962
 Alpha  occ. eigenvalues --   -1.15532  -1.14589  -1.13175  -1.12605  -1.12080
 Alpha  occ. eigenvalues --   -1.11172  -1.05376  -1.03338  -1.03056  -1.02663
 Alpha  occ. eigenvalues --   -1.02040  -1.00774  -0.98400  -0.96633  -0.91386
 Alpha  occ. eigenvalues --   -0.89994  -0.89090  -0.87975  -0.86145  -0.85486
 Alpha  occ. eigenvalues --   -0.84077  -0.81907  -0.80871  -0.77598  -0.76992
 Alpha  occ. eigenvalues --   -0.75741  -0.75534  -0.74083  -0.73559  -0.72298
 Alpha  occ. eigenvalues --   -0.71536  -0.71167  -0.69476  -0.69155  -0.68634
 Alpha  occ. eigenvalues --   -0.67828  -0.66792  -0.66215  -0.65515  -0.64524
 Alpha  occ. eigenvalues --   -0.64248  -0.63150  -0.62036  -0.61907  -0.61189
 Alpha  occ. eigenvalues --   -0.60886  -0.60680  -0.60017  -0.59484  -0.59074
 Alpha  occ. eigenvalues --   -0.58487  -0.57735  -0.57662  -0.56939  -0.56595
 Alpha  occ. eigenvalues --   -0.56217  -0.55572  -0.54941  -0.54254  -0.53735
 Alpha  occ. eigenvalues --   -0.53446  -0.52955  -0.52661  -0.52626  -0.52307
 Alpha  occ. eigenvalues --   -0.51931  -0.51622  -0.51399  -0.50621  -0.50302
 Alpha  occ. eigenvalues --   -0.50025  -0.49846  -0.48894  -0.48398  -0.47814
 Alpha  occ. eigenvalues --   -0.47608  -0.47305  -0.46551  -0.46525  -0.46346
 Alpha  occ. eigenvalues --   -0.45963  -0.45818  -0.45549  -0.45296  -0.45028
 Alpha  occ. eigenvalues --   -0.44955  -0.44622  -0.44442  -0.43863  -0.42258
 Alpha  occ. eigenvalues --   -0.41772  -0.41188  -0.40722  -0.40536  -0.40206
 Alpha  occ. eigenvalues --   -0.39631  -0.38601  -0.37887  -0.36880  -0.36329
 Alpha  occ. eigenvalues --   -0.35754  -0.35126  -0.34692  -0.34396  -0.34043
 Alpha  occ. eigenvalues --   -0.33450  -0.33324
 Alpha virt. eigenvalues --   -0.12458  -0.11698  -0.10970  -0.10623  -0.09653
 Alpha virt. eigenvalues --   -0.07395  -0.07089  -0.06014  -0.05107  -0.04535
 Alpha virt. eigenvalues --   -0.03298  -0.02616  -0.02132  -0.01354  -0.00928

 Mulliken charges:
               1
     1  N   -0.803676
     2  C   -0.073849
     3  C    0.592927
     4  O   -0.486384
     5  C   -0.392596
     6  C    0.187855
     7  C   -0.203887
     8  C   -0.209919
     9  C   -0.148817
    10  C   -0.141779
    11  C   -0.182368
    12  H    0.348868
    13  H    0.448938
    14  H    0.181845
    15  H    0.190482
    16  H    0.154357
    17  H    0.157580
    18  H    0.157159
    19  H    0.165658
    20  H    0.157037
    21  H    0.159318
    22  H    0.345975
    23  N   -0.613673
    24  C   -0.060481
    25  C    0.611552
    26  O   -0.553952
    27  C   -0.292428
    28  C   -0.090949
    29  C   -0.453302
    30  C   -0.443540
    31  H    0.343425
    32  H    0.222034
    33  H    0.172311
    34  H    0.121853
    35  H    0.123241
    36  H    0.154917
    37  H    0.156042
    38  H    0.160734
    39  H    0.155827
    40  H    0.134808
    41  H    0.160274
    42  N   -0.605952
    43  C   -0.061272
    44  C    0.666616
    45  O   -0.528327
    46  C   -0.402964
    47  C    0.641418
    48  N   -0.752876
    49  O   -0.518698
    50  H    0.353148
    51  H    0.212934
    52  H    0.188770
    53  H    0.184139
    54  H    0.356183
    55  H    0.347900
    56  N   -0.646574
    57  C   -0.069296
    58  C    0.641963
    59  O   -0.461417
    60  C   -0.255770
    61  C   -0.316217
    62  C   -0.152496
    63  N   -0.606883
    64  C    0.793940
    65  N   -0.788231
    66  N   -0.761018
    67  O   -0.585642
    68  H    0.427202
    69  H    0.375461
    70  H    0.164622
    71  H    0.148866
    72  H    0.206060
    73  H    0.203598
    74  H    0.161894
    75  H    0.169731
    76  H    0.198118
    77  H    0.354302
    78  H    0.363994
    79  H    0.373409
    80  H    0.365948
 Sum of Mulliken charges =   1.00000

 Dipole moment (field-independent basis, Debye):
    X=            -18.8984    Y=             60.3317    Z=            -33.5150  Tot=             71.5564
 Quadrupole moment (field-independent basis, Debye-Ang):
   XX=           -130.5229   YY=            595.8745   ZZ=             63.4178
   XY=           -288.3310   XZ=             98.3482   YZ=           -390.3678

 Normal termination of Gaussian 16 at Sat Jun 11 21:14:48 2022.
