 Gaussian 16, Revision C.01,
 Gaussian 16:  ES64L-G16RevC.01  3-Jul-2019

 ----------------------------------------------------------------------
 # B3LYP/6-31G* empiricaldispersion=gd3 guess=read geom=check nosymm in
 tegral(ultrafinegrid)
 ----------------------------------------------------------------------

 ------------------------------------------------------
 Candidate Structure: Conf:746 Charge calc in gas phase
 ------------------------------------------------------
 Structure from the checkpoint file:  "conf-746.chk"
 Charge =  1 Multiplicity = 1

                          Input orientation:
 ---------------------------------------------------------------------
 Center     Atomic      Atomic             Coordinates (Angstroms)
 Number     Number       Type             X           Y           Z
 ---------------------------------------------------------------------
      1          7           0        9.960273   29.382862   12.411476
      2          6           0        9.999563   28.874338   10.984511
      3          6           0       11.402302   28.911953   10.306631
      4          8           0       11.870841   27.836945    9.961692
      5          6           0        8.975412   29.518089   10.028766
      6          6           0        7.535226   28.938162   10.016124
      7          6           0        6.764188   29.234352   11.278235
      8          8           0        6.074671   30.222149   11.454396
      9          8           0        6.948641   28.387180   12.323461
     10          1           0        7.333948   27.545407   12.021152
     11          1           0       10.055015   30.447703   12.646590
     12          1           0        9.814200   27.800106   11.065145
     13          1           0        8.940640   30.598228   10.154020
     14          1           0        9.360760   29.355040    9.018254
     15          1           0        7.574247   27.857401    9.829903
     16          1           0        6.993740   29.401946    9.188478
     17          1           0        9.092151   29.084744   12.867673
     18          1           0       10.751910   28.977293   12.949549
     19          7           0       11.912167   30.107727    9.910432
     20          6           0       11.844126   31.404026   10.571796
     21          6           0       11.686162   32.447004    9.450212
     22          8           0       12.290441   32.293286    8.398853
     23          6           0       13.144867   31.710058   11.424129
     24          6           0       13.872522   30.458488   11.814173
     25          6           0       14.874423   29.872443   11.074016
     26          6           0       13.541866   29.517583   12.855805
     27          6           0       14.368466   28.372788   12.667046
     28          6           0       12.646661   29.530087   13.945594
     29          7           0       15.178171   28.629211   11.584334
     30          6           0       14.287518   27.243672   13.488912
     31          6           0       12.556524   28.399654   14.757612
     32          6           0       13.361646   27.263410   14.524572
     33          1           0       12.722273   30.002285    9.307166
     34          1           0       10.991847   31.408760   11.242571
     35          1           0       12.834448   32.289335   12.299438
     36          1           0       13.808688   32.337293   10.820123
     37          1           0       15.393619   30.253326   10.204414
     38          1           0       15.877990   28.003181   11.216013
     39          1           0       12.072971   30.425131   14.165260
     40          1           0       14.925211   26.380379   13.321212
     41          1           0       11.886413   28.408614   15.613850
     42          1           0       13.275588   26.402046   15.180285
     43          7           0       10.890588   33.540649    9.671929
     44          6           0       10.053896   33.791118   10.828967
     45          6           0        8.737795   32.990086   10.742768
     46          8           0        8.176424   32.832724    9.654412
     47          6           0        9.752908   35.306977   11.000320
     48          6           0        9.086190   35.965030    9.799154
     49          8           0        8.870018   35.468676   12.113480
     50          1           0        9.339899   35.142761   12.920929
     51          1           0       10.720519   34.078591    8.830889
     52          1           0       10.618951   33.498384   11.709149
     53          1           0       10.711030   35.802759   11.204791
     54          1           0        8.809498   36.988548   10.066609
     55          1           0        8.188619   35.418624    9.491035
     56          1           0        9.760516   36.019007    8.938946
     57          7           0        8.228785   32.354099   11.850495
     58          6           0        8.338325   32.680230   13.283957
     59          6           0        9.832611   32.777778   13.656603
     60          8           0       10.264664   33.887588   14.008114
     61          6           0        7.579693   31.607174   14.105971
     62          6           0        6.501070   32.134998   15.070861
     63          6           0        5.521442   33.183497   14.495864
     64          7           0        5.118398   32.937493   13.099509
     65          6           0        5.529122   33.635013   12.029128
     66          7           0        6.004123   34.893059   12.139232
     67          7           0        5.416693   33.090246   10.808301
     68          8           0       10.498497   31.703755   13.476111
     69          1           0        7.403331   31.824289   11.602313
     70          1           0        7.899515   33.662004   13.459176
     71          1           0        8.301731   31.022597   14.685400
     72          1           0        7.095202   30.902648   13.426305
     73          1           0        5.934102   31.273372   15.442687
     74          1           0        6.963944   32.597236   15.950838
     75          1           0        4.617473   33.230560   15.109865
     76          1           0        5.978874   34.171363   14.543628
     77          1           0        4.672867   32.046684   12.906976
     78          1           0        6.893538   35.133729   11.692194
     79          1           0        5.891521   35.363564   13.026195
     80          1           0        5.439786   32.078473   10.714495
     81          1           0        5.807197   33.595482   10.021857
 ---------------------------------------------------------------------

 SCF Done:  E(RB3LYP) =  -2054.03923094     A.U. after    1 cycles

 Alpha  occ. eigenvalues --  -19.35561 -19.30074 -19.24932 -19.23457 -19.21720
 Alpha  occ. eigenvalues --  -19.20848 -19.20210 -19.19796 -14.54510 -14.52284
 Alpha  occ. eigenvalues --  -14.50541 -14.49857 -14.47437 -14.45684 -14.45462
 Alpha  occ. eigenvalues --  -14.45352 -10.48080 -10.47555 -10.40335 -10.39773
 Alpha  occ. eigenvalues --  -10.37966 -10.37955 -10.37802 -10.36496 -10.34684
 Alpha  occ. eigenvalues --  -10.34593 -10.33566 -10.33490 -10.33466 -10.33091
 Alpha  occ. eigenvalues --  -10.31375 -10.30809 -10.29674 -10.29622 -10.27743
 Alpha  occ. eigenvalues --  -10.27410 -10.26720 -10.26374 -10.26347 -10.26228
 Alpha  occ. eigenvalues --  -10.26082 -10.26059  -1.25985  -1.17760  -1.16113
 Alpha  occ. eigenvalues --   -1.15345  -1.14059  -1.13666  -1.12439  -1.11959
 Alpha  occ. eigenvalues --   -1.09589  -1.05676  -1.05596  -1.05002  -1.03694
 Alpha  occ. eigenvalues --   -1.03341  -1.02223  -1.01889  -0.94340  -0.91953
 Alpha  occ. eigenvalues --   -0.91666  -0.88510  -0.87241  -0.86692  -0.86119
 Alpha  occ. eigenvalues --   -0.84106  -0.81630  -0.81345  -0.80193  -0.79872
 Alpha  occ. eigenvalues --   -0.78482  -0.77527  -0.76310  -0.75257  -0.73191
 Alpha  occ. eigenvalues --   -0.72593  -0.71981  -0.71550  -0.70044  -0.69439
 Alpha  occ. eigenvalues --   -0.68693  -0.68059  -0.67647  -0.66963  -0.66136
 Alpha  occ. eigenvalues --   -0.65563  -0.65250  -0.64537  -0.64064  -0.63790
 Alpha  occ. eigenvalues --   -0.63525  -0.62470  -0.61924  -0.61492  -0.61410
 Alpha  occ. eigenvalues --   -0.61178  -0.60217  -0.59813  -0.58799  -0.58557
 Alpha  occ. eigenvalues --   -0.57737  -0.57243  -0.56885  -0.56500  -0.55945
 Alpha  occ. eigenvalues --   -0.55206  -0.54968  -0.54683  -0.54518  -0.54300
 Alpha  occ. eigenvalues --   -0.53661  -0.53456  -0.53052  -0.52693  -0.52233
 Alpha  occ. eigenvalues --   -0.51692  -0.51089  -0.50897  -0.50288  -0.49816
 Alpha  occ. eigenvalues --   -0.49784  -0.49409  -0.49322  -0.49146  -0.48866
 Alpha  occ. eigenvalues --   -0.48419  -0.48114  -0.47907  -0.47506  -0.47420
 Alpha  occ. eigenvalues --   -0.47198  -0.47005  -0.46459  -0.46307  -0.45430
 Alpha  occ. eigenvalues --   -0.45070  -0.44904  -0.43461  -0.43240  -0.42750
 Alpha  occ. eigenvalues --   -0.42006  -0.41450  -0.40830  -0.40654  -0.38389
 Alpha  occ. eigenvalues --   -0.38105  -0.37031  -0.36122  -0.35948  -0.35554
 Alpha  occ. eigenvalues --   -0.35175  -0.34858  -0.34417  -0.33530  -0.33239
 Alpha  occ. eigenvalues --   -0.30234  -0.28150
 Alpha virt. eigenvalues --   -0.15940  -0.13199  -0.11160  -0.10642  -0.09499
 Alpha virt. eigenvalues --   -0.09020  -0.07351  -0.06954  -0.06136  -0.05500
 Alpha virt. eigenvalues --   -0.04606  -0.03481  -0.03261  -0.01842  -0.01571

 Mulliken charges:
               1
     1  N   -0.828886
     2  C   -0.094946
     3  C    0.583198
     4  O   -0.478512
     5  C   -0.322879
     6  C   -0.382592
     7  C    0.613206
     8  O   -0.475460
     9  O   -0.556255
    10  H    0.437141
    11  H    0.467832
    12  H    0.188025
    13  H    0.215174
    14  H    0.226946
    15  H    0.182954
    16  H    0.218676
    17  H    0.379129
    18  H    0.400977
    19  N   -0.557566
    20  C   -0.063858
    21  C    0.617956
    22  O   -0.502059
    23  C   -0.386340
    24  C    0.063044
    25  C    0.006815
    26  C    0.071791
    27  C    0.332050
    28  C   -0.332698
    29  N   -0.676774
    30  C   -0.150748
    31  C   -0.158531
    32  C   -0.151687
    33  H    0.359465
    34  H    0.133055
    35  H    0.198448
    36  H    0.176665
    37  H    0.172178
    38  H    0.343649
    39  H    0.206757
    40  H    0.146452
    41  H    0.131343
    42  H    0.142240
    43  N   -0.605384
    44  C   -0.108884
    45  C    0.615858
    46  O   -0.556220
    47  C    0.119441
    48  C   -0.479821
    49  O   -0.685529
    50  H    0.440666
    51  H    0.349637
    52  H    0.219288
    53  H    0.171302
    54  H    0.185674
    55  H    0.151990
    56  H    0.168430
    57  N   -0.683145
    58  C    0.000056
    59  C    0.606098
    60  O   -0.547983
    61  C   -0.351034
    62  C   -0.289183
    63  C   -0.167873
    64  N   -0.573348
    65  C    0.725591
    66  N   -0.754134
    67  N   -0.727341
    68  O   -0.602374
    69  H    0.349322
    70  H    0.138940
    71  H    0.176606
    72  H    0.157000
    73  H    0.169068
    74  H    0.187888
    75  H    0.203403
    76  H    0.171837
    77  H    0.369069
    78  H    0.413687
    79  H    0.369486
    80  H    0.389963
    81  H    0.386574
 Sum of Mulliken charges =   1.00000

 Dipole moment (field-independent basis, Debye):
    X=             35.3031    Y=            147.4871    Z=             58.4059  Tot=            162.5116
 Quadrupole moment (field-independent basis, Debye-Ang):
   XX=             65.6041   YY=           4335.9721   ZZ=            470.0791
   XY=           1052.0714   XZ=            417.3512   YZ=           1790.1776

 Normal termination of Gaussian 16 at Fri May 27 05:10:44 2022.
