 Gaussian 16, Revision C.01,
 Gaussian 16:  ES64L-G16RevC.01  3-Jul-2019

 ----------------------------------------------------------------------
 # B3LYP/6-31G* empiricaldispersion=gd3 guess=read geom=check nosymm in
 tegral(ultrafinegrid)
 ----------------------------------------------------------------------

 ------------------------------------------------------
 Candidate Structure: Conf:472 Charge calc in gas phase
 ------------------------------------------------------
 Structure from the checkpoint file:  "conf-472.chk"
 Charge =  1 Multiplicity = 1

                          Input orientation:
 ---------------------------------------------------------------------
 Center     Atomic      Atomic             Coordinates (Angstroms)
 Number     Number       Type             X           Y           Z
 ---------------------------------------------------------------------
      1          7           0       11.327623   31.647065    9.645224
      2          6           0       12.629346   32.308313   10.088386
      3          6           0       13.713812   31.259824   10.456554
      4          8           0       14.649167   31.124264    9.681430
      5          6           0       12.441004   33.392248   11.161241
      6          6           0       11.763468   34.705963   10.700674
      7          6           0       10.252502   34.644523   10.696098
      8          8           0        9.534608   35.138472   11.536130
      9          8           0        9.744608   33.928267    9.650051
     10          1           0        8.718777   33.886112    9.758596
     11          1           0       11.481710   31.052893    8.822540
     12          1           0       13.015621   32.767684    9.176578
     13          1           0       11.953750   33.020892   12.066633
     14          1           0       13.458724   33.647197   11.475734
     15          1           0       12.121173   34.992704    9.704720
     16          1           0       12.035439   35.494033   11.405325
     17          1           0       10.940387   31.015991   10.357366
     18          1           0       10.623865   32.389026    9.431571
     19          7           0       13.656386   30.641352   11.666488
     20          6           0       12.516622   30.324241   12.506441
     21          6           0       12.877815   30.604630   13.978103
     22          8           0       14.044814   30.632255   14.327924
     23          6           0       12.105075   28.831757   12.327015
     24          6           0       11.408446   28.586444   11.023324
     25          6           0       11.960186   28.570984    9.762667
     26          6           0        9.986978   28.367823   10.856221
     27          6           0        9.740975   28.252536    9.462307
     28          6           0        8.918154   28.197493   11.759936
     29          7           0       10.954314   28.435063    8.809855
     30          6           0        8.467922   27.977509    8.947359
     31          6           0        7.655959   27.911043   11.251613
     32          6           0        7.434012   27.802801    9.859304
     33          1           0       14.519351   30.174760   11.933228
     34          1           0       11.680968   30.961749   12.218342
     35          1           0       11.454779   28.533627   13.155169
     36          1           0       13.014455   28.228480   12.424672
     37          1           0       12.995100   28.657439    9.458297
     38          1           0       11.127607   28.126124    7.862300
     39          1           0        9.067951   28.266365   12.834272
     40          1           0        8.299325   27.875605    7.879178
     41          1           0        6.829182   27.737354   11.935510
     42          1           0        6.438965   27.563762    9.496656
     43          7           0       11.822798   30.703969   14.844367
     44          6           0       10.436510   30.954011   14.479711
     45          6           0       10.235454   32.467753   14.199514
     46          8           0       11.166064   33.234205   14.429710
     47          6           0        9.497365   30.346840   15.557020
     48          6           0        9.091920   31.308008   16.669043
     49          8           0        8.377815   29.846068   14.818121
     50          1           0        7.593396   29.829109   15.390791
     51          1           0       12.109081   31.040047   15.758763
     52          1           0       10.210064   30.383432   13.579354
     53          1           0       10.047135   29.496673   15.983947
     54          1           0        8.532961   30.773294   17.444704
     55          1           0        8.464439   32.113774   16.279694
     56          1           0        9.977229   31.746056   17.143815
     57          7           0        9.041432   32.966519   13.742246
     58          6           0        7.984322   32.391158   12.905745
     59          6           0        6.882763   31.671730   13.710459
     60          8           0        6.428797   32.139270   14.720972
     61          6           0        8.558063   31.681875   11.662338
     62          6           0        7.630254   31.427151   10.449901
     63          6           0        6.529628   32.453344   10.160549
     64          7           0        7.021637   33.818829    9.857075
     65          6           0        6.543669   34.935804   10.657616
     66          7           0        5.823150   34.921519   11.706964
     67          7           0        6.951591   36.131762   10.091634
     68          8           0        6.310138   30.580151   13.133960
     69          1           0        6.954556   30.100660   12.586653
     70          1           0        9.107514   33.976731   13.659068
     71          1           0        7.455039   33.280693   12.552388
     72          1           0        9.007173   30.724985   11.944332
     73          1           0        9.375269   32.331146   11.353581
     74          1           0        8.262705   31.310206    9.558472
     75          1           0        7.129472   30.461164   10.554814
     76          1           0        5.939167   32.096314    9.311152
     77          1           0        5.841152   32.482605   11.008296
     78          1           0        6.831342   34.057002    8.883897
     79          1           0        5.412713   34.018615   11.936181
     80          1           0        7.937580   36.186963    9.861976
     81          1           0        6.659085   36.920920   10.658665
 ---------------------------------------------------------------------

 SCF Done:  E(RB3LYP) =  -2053.99769918     A.U. after    3 cycles

 Alpha  occ. eigenvalues --  -19.32385 -19.28977 -19.27300 -19.26314 -19.24575
 Alpha  occ. eigenvalues --  -19.23113 -19.22667 -19.22424 -14.60163 -14.51202
 Alpha  occ. eigenvalues --  -14.48819 -14.48670 -14.46773 -14.46668 -14.44138
 Alpha  occ. eigenvalues --  -14.40090 -10.45400 -10.42720 -10.41955 -10.40476
 Alpha  occ. eigenvalues --  -10.40043 -10.39904 -10.39340 -10.37041 -10.35625
 Alpha  occ. eigenvalues --  -10.35346 -10.35147 -10.34949 -10.34879 -10.34751
 Alpha  occ. eigenvalues --  -10.34419 -10.33386 -10.32457 -10.32288 -10.32108
 Alpha  occ. eigenvalues --  -10.31771 -10.31473 -10.31334 -10.30981 -10.30698
 Alpha  occ. eigenvalues --  -10.30431 -10.27228  -1.23117  -1.19640  -1.17167
 Alpha  occ. eigenvalues --   -1.15152  -1.14918  -1.14286  -1.14052  -1.13393
 Alpha  occ. eigenvalues --   -1.11619  -1.10759  -1.08704  -1.05563  -1.03628
 Alpha  occ. eigenvalues --   -1.03164  -1.00313  -0.96448  -0.95300  -0.95123
 Alpha  occ. eigenvalues --   -0.93392  -0.92286  -0.89104  -0.88195  -0.87502
 Alpha  occ. eigenvalues --   -0.86037  -0.85518  -0.84444  -0.81762  -0.80260
 Alpha  occ. eigenvalues --   -0.79583  -0.78921  -0.75852  -0.74641  -0.74187
 Alpha  occ. eigenvalues --   -0.73591  -0.72859  -0.72273  -0.71824  -0.71601
 Alpha  occ. eigenvalues --   -0.71380  -0.70035  -0.68944  -0.68768  -0.68337
 Alpha  occ. eigenvalues --   -0.66508  -0.66121  -0.66090  -0.64255  -0.63720
 Alpha  occ. eigenvalues --   -0.63151  -0.62533  -0.61934  -0.61479  -0.61109
 Alpha  occ. eigenvalues --   -0.60620  -0.59946  -0.59733  -0.59572  -0.59040
 Alpha  occ. eigenvalues --   -0.58923  -0.58405  -0.57928  -0.57482  -0.57117
 Alpha  occ. eigenvalues --   -0.56354  -0.56204  -0.55837  -0.55458  -0.55146
 Alpha  occ. eigenvalues --   -0.54902  -0.54528  -0.54300  -0.54269  -0.53799
 Alpha  occ. eigenvalues --   -0.53704  -0.53527  -0.52979  -0.52530  -0.51928
 Alpha  occ. eigenvalues --   -0.51764  -0.51246  -0.50760  -0.50416  -0.50243
 Alpha  occ. eigenvalues --   -0.49868  -0.49633  -0.49137  -0.48907  -0.48470
 Alpha  occ. eigenvalues --   -0.47723  -0.47491  -0.47464  -0.47048  -0.46591
 Alpha  occ. eigenvalues --   -0.46478  -0.46460  -0.45826  -0.45504  -0.45400
 Alpha  occ. eigenvalues --   -0.43891  -0.41209  -0.40527  -0.40454  -0.39130
 Alpha  occ. eigenvalues --   -0.38874  -0.38620  -0.37898  -0.37530  -0.36978
 Alpha  occ. eigenvalues --   -0.36663  -0.36259  -0.35790  -0.35519  -0.35263
 Alpha  occ. eigenvalues --   -0.34762  -0.33318
 Alpha virt. eigenvalues --   -0.14409  -0.13958  -0.12690  -0.11245  -0.10605
 Alpha virt. eigenvalues --   -0.09922  -0.09183  -0.08860  -0.07806  -0.06958
 Alpha virt. eigenvalues --   -0.05477  -0.05171  -0.04307  -0.03608  -0.03069

 Mulliken charges:
               1
     1  N   -0.805747
     2  C   -0.115586
     3  C    0.577965
     4  O   -0.469885
     5  C   -0.341159
     6  C   -0.350349
     7  C    0.583810
     8  O   -0.443243
     9  O   -0.669136
    10  H    0.474807
    11  H    0.414310
    12  H    0.226366
    13  H    0.216888
    14  H    0.228452
    15  H    0.188225
    16  H    0.224875
    17  H    0.424666
    18  H    0.445513
    19  N   -0.554428
    20  C   -0.091614
    21  C    0.629733
    22  O   -0.481257
    23  C   -0.360168
    24  C    0.051291
    25  C   -0.065005
    26  C    0.066888
    27  C    0.286044
    28  C   -0.239529
    29  N   -0.692358
    30  C   -0.162441
    31  C   -0.179666
    32  C   -0.148539
    33  H    0.370832
    34  H    0.108539
    35  H    0.189492
    36  H    0.194367
    37  H    0.202905
    38  H    0.357117
    39  H    0.180876
    40  H    0.156618
    41  H    0.170401
    42  H    0.164426
    43  N   -0.583789
    44  C   -0.108615
    45  C    0.581198
    46  O   -0.496101
    47  C    0.146545
    48  C   -0.513633
    49  O   -0.655971
    50  H    0.427481
    51  H    0.357302
    52  H    0.165278
    53  H    0.161347
    54  H    0.174291
    55  H    0.212005
    56  H    0.168596
    57  N   -0.584485
    58  C   -0.059253
    59  C    0.622898
    60  O   -0.433972
    61  C   -0.376616
    62  C   -0.286996
    63  C   -0.149103
    64  N   -0.690790
    65  C    0.587332
    66  N   -0.593040
    67  N   -0.735123
    68  O   -0.598953
    69  H    0.428834
    70  H    0.371790
    71  H    0.200092
    72  H    0.176189
    73  H    0.119032
    74  H    0.119619
    75  H    0.175245
    76  H    0.180514
    77  H    0.171635
    78  H    0.360599
    79  H    0.301702
    80  H    0.330259
    81  H    0.361360
 Sum of Mulliken charges =   1.00000

 Dipole moment (field-independent basis, Debye):
    X=             47.3093    Y=            148.1483    Z=             46.2210  Tot=            162.2420
 Quadrupole moment (field-independent basis, Debye-Ang):
   XX=            214.8379   YY=           4352.7947   ZZ=            223.4997
   XY=           1466.4660   XZ=            459.0899   YZ=           1410.4477

 Normal termination of Gaussian 16 at Fri May 27 05:14:56 2022.
