 Gaussian 16, Revision C.01,
 Gaussian 16:  ES64L-G16RevC.01  3-Jul-2019

 ----------------------------------------------------------------------
 # B3LYP/6-31G* empiricaldispersion=gd3 guess=read geom=check nosymm in
 tegral(ultrafinegrid)
 ----------------------------------------------------------------------

 ------------------------------------------------------
 Candidate Structure: Conf:883 Charge calc in gas phase
 ------------------------------------------------------
 Structure from the checkpoint file:  "conf-883.chk"
 Charge =  1 Multiplicity = 1

                          Input orientation:
 ---------------------------------------------------------------------
 Center     Atomic      Atomic             Coordinates (Angstroms)
 Number     Number       Type             X           Y           Z
 ---------------------------------------------------------------------
      1          7           0       10.218282   28.814305   12.403153
      2          6           0       11.685195   28.486368   12.170654
      3          6           0       12.626504   28.902718   13.329382
      4          8           0       13.216535   28.010674   13.919861
      5          6           0       12.200497   29.010977   10.818374
      6          6           0       11.806199   28.183163    9.574917
      7          6           0       10.516548   28.587861    8.890568
      8          8           0       10.398060   28.670284    7.687402
      9          8           0        9.506534   28.851507    9.748077
     10          1           0        8.669241   29.238597    9.247033
     11          1           0        9.705747   28.694488   11.501218
     12          1           0       11.729202   27.396094   12.180849
     13          1           0       11.940733   30.067406   10.683891
     14          1           0       13.291638   28.985861   10.897202
     15          1           0       11.737315   27.117113    9.832221
     16          1           0       12.586454   28.264752    8.815244
     17          1           0        9.813317   28.235234   13.149961
     18          1           0       10.067326   29.778093   12.722889
     19          7           0       12.914800   30.222392   13.509483
     20          6           0       12.089711   31.402827   13.313807
     21          6           0       12.988075   32.515144   12.728730
     22          8           0       14.195405   32.483976   12.898123
     23          6           0       11.392926   31.781155   14.657445
     24          6           0       10.302571   30.805274   14.986478
     25          6           0       10.438103   29.517651   15.449709
     26          6           0        8.889449   31.014151   14.737722
     27          6           0        8.226339   29.797812   15.047856
     28          6           0        8.126533   32.130893   14.341876
     29          7           0        9.202081   28.875436   15.424238
     30          6           0        6.835945   29.663376   14.969449
     31          6           0        6.744982   32.005516   14.272798
     32          6           0        6.108356   30.783436   14.581423
     33          1           0       13.731989   30.382282   14.092908
     34          1           0       11.326312   31.187385   12.562997
     35          1           0       10.972198   32.788478   14.598384
     36          1           0       12.166575   31.813809   15.432258
     37          1           0       11.322806   28.983183   15.767653
     38          1           0        8.999707   28.054610   15.980593
     39          1           0        8.595625   33.086817   14.126699
     40          1           0        6.341552   28.730367   15.224648
     41          1           0        6.148027   32.858544   13.966034
     42          1           0        5.026133   30.720101   14.522512
     43          7           0       12.366208   33.450736   11.945289
     44          6           0       10.980116   33.892087   12.012194
     45          6           0       10.538739   34.301557   10.598821
     46          8           0       11.347937   34.916692    9.914728
     47          6           0       10.861013   35.092105   12.998542
     48          6           0       11.463845   36.408270   12.525722
     49          8           0        9.457517   35.217052   13.271886
     50          1           0        9.294908   36.025079   13.785948
     51          1           0       12.994622   34.099183   11.479443
     52          1           0       10.358058   33.095641   12.414336
     53          1           0       11.372475   34.774319   13.918351
     54          1           0       10.961667   36.780319   11.630163
     55          1           0       12.527799   36.296199   12.299236
     56          1           0       11.377276   37.156058   13.322813
     57          7           0        9.251928   34.115183   10.151918
     58          6           0        8.154281   33.154155   10.383357
     59          6           0        6.954480   33.701397   11.181436
     60          8           0        5.851143   33.238576   10.976386
     61          6           0        8.576059   31.751346   10.876789
     62          6           0        7.433153   30.733483   11.078958
     63          6           0        6.544574   30.349837    9.887140
     64          7           0        7.291434   29.899979    8.684617
     65          6           0        7.478599   30.866672    7.599993
     66          7           0        7.005564   32.053779    7.521818
     67          7           0        8.221041   30.319020    6.596276
     68          8           0        7.147867   34.647219   12.096514
     69          1           0        8.095338   34.894315   12.207712
     70          1           0        9.164895   34.571672    9.247703
     71          1           0        7.747613   32.998082    9.384489
     72          1           0        9.070753   31.835280   11.849322
     73          1           0        9.315543   31.372203   10.162073
     74          1           0        7.879968   29.819417   11.488953
     75          1           0        6.764608   31.099413   11.858750
     76          1           0        5.906664   29.518695   10.201430
     77          1           0        5.874930   31.180555    9.658357
     78          1           0        6.848334   29.077454    8.274150
     79          1           0        6.292041   32.251556    8.221059
     80          1           0        8.955679   29.653438    6.820354
     81          1           0        8.395479   30.938806    5.816162
 ---------------------------------------------------------------------

 SCF Done:  E(RB3LYP) =  -2054.01346600     A.U. after    2 cycles

 Alpha  occ. eigenvalues --  -19.31554 -19.29347 -19.27849 -19.26514 -19.24594
 Alpha  occ. eigenvalues --  -19.23340 -19.22868 -19.22496 -14.59393 -14.50777
 Alpha  occ. eigenvalues --  -14.48818 -14.47876 -14.47733 -14.47612 -14.43019
 Alpha  occ. eigenvalues --  -14.38858 -10.44858 -10.42735 -10.41209 -10.40958
 Alpha  occ. eigenvalues --  -10.40683 -10.40250 -10.38573 -10.37641 -10.37138
 Alpha  occ. eigenvalues --  -10.36429 -10.35054 -10.34641 -10.34493 -10.34257
 Alpha  occ. eigenvalues --  -10.33253 -10.33096 -10.32667 -10.32119 -10.31479
 Alpha  occ. eigenvalues --  -10.30930 -10.30625 -10.30542 -10.29952 -10.29734
 Alpha  occ. eigenvalues --  -10.29084 -10.28558  -1.22284  -1.19156  -1.17140
 Alpha  occ. eigenvalues --   -1.16356  -1.15539  -1.14935  -1.14444  -1.13425
 Alpha  occ. eigenvalues --   -1.10649  -1.10249  -1.07737  -1.05670  -1.04506
 Alpha  occ. eigenvalues --   -1.03263  -0.99277  -0.95713  -0.95051  -0.94194
 Alpha  occ. eigenvalues --   -0.93176  -0.91490  -0.89746  -0.88508  -0.87295
 Alpha  occ. eigenvalues --   -0.85200  -0.84940  -0.83892  -0.83162  -0.79907
 Alpha  occ. eigenvalues --   -0.79054  -0.78719  -0.75616  -0.74768  -0.73835
 Alpha  occ. eigenvalues --   -0.73628  -0.72485  -0.72342  -0.71793  -0.71196
 Alpha  occ. eigenvalues --   -0.70981  -0.69578  -0.69172  -0.68237  -0.67752
 Alpha  occ. eigenvalues --   -0.66350  -0.65566  -0.65520  -0.64843  -0.63817
 Alpha  occ. eigenvalues --   -0.63345  -0.62362  -0.61902  -0.61294  -0.61156
 Alpha  occ. eigenvalues --   -0.60600  -0.60032  -0.59966  -0.59445  -0.58986
 Alpha  occ. eigenvalues --   -0.58883  -0.58637  -0.57923  -0.57506  -0.57183
 Alpha  occ. eigenvalues --   -0.56520  -0.55986  -0.55566  -0.55278  -0.54757
 Alpha  occ. eigenvalues --   -0.54567  -0.54369  -0.53954  -0.53661  -0.53442
 Alpha  occ. eigenvalues --   -0.53084  -0.52976  -0.52661  -0.52542  -0.51696
 Alpha  occ. eigenvalues --   -0.51239  -0.51011  -0.50727  -0.50599  -0.49954
 Alpha  occ. eigenvalues --   -0.49708  -0.49601  -0.49321  -0.49069  -0.48694
 Alpha  occ. eigenvalues --   -0.48421  -0.48021  -0.47262  -0.46681  -0.46530
 Alpha  occ. eigenvalues --   -0.46458  -0.45385  -0.45077  -0.44872  -0.44563
 Alpha  occ. eigenvalues --   -0.44264  -0.41345  -0.40355  -0.40164  -0.40047
 Alpha  occ. eigenvalues --   -0.38980  -0.38762  -0.38388  -0.38128  -0.37592
 Alpha  occ. eigenvalues --   -0.36849  -0.36312  -0.35811  -0.34862  -0.34430
 Alpha  occ. eigenvalues --   -0.33082  -0.32845
 Alpha virt. eigenvalues --   -0.13773  -0.13055  -0.11766  -0.11194  -0.10501
 Alpha virt. eigenvalues --   -0.10107  -0.09141  -0.08081  -0.06858  -0.06619
 Alpha virt. eigenvalues --   -0.05781  -0.05196  -0.04265  -0.03562  -0.03161

 Mulliken charges:
               1
     1  N   -0.814755
     2  C   -0.103575
     3  C    0.575648
     4  O   -0.469930
     5  C   -0.314858
     6  C   -0.377366
     7  C    0.614527
     8  O   -0.445301
     9  O   -0.666952
    10  H    0.476811
    11  H    0.454402
    12  H    0.223135
    13  H    0.183136
    14  H    0.225420
    15  H    0.197895
    16  H    0.222404
    17  H    0.417056
    18  H    0.423392
    19  N   -0.555642
    20  C   -0.097347
    21  C    0.610272
    22  O   -0.474047
    23  C   -0.362611
    24  C    0.040712
    25  C   -0.049681
    26  C    0.055939
    27  C    0.270091
    28  C   -0.241432
    29  N   -0.695629
    30  C   -0.166164
    31  C   -0.158908
    32  C   -0.149804
    33  H    0.369444
    34  H    0.122488
    35  H    0.182350
    36  H    0.191317
    37  H    0.203424
    38  H    0.358089
    39  H    0.168640
    40  H    0.153651
    41  H    0.184822
    42  H    0.164999
    43  N   -0.598045
    44  C   -0.095895
    45  C    0.620193
    46  O   -0.495821
    47  C    0.144145
    48  C   -0.481887
    49  O   -0.650548
    50  H    0.431259
    51  H    0.368815
    52  H    0.152387
    53  H    0.153449
    54  H    0.195494
    55  H    0.180614
    56  H    0.164415
    57  N   -0.643604
    58  C   -0.075267
    59  C    0.617008
    60  O   -0.467775
    61  C   -0.324261
    62  C   -0.276493
    63  C   -0.165294
    64  N   -0.702610
    65  C    0.578380
    66  N   -0.624723
    67  N   -0.767400
    68  O   -0.590426
    69  H    0.454666
    70  H    0.365111
    71  H    0.206322
    72  H    0.141504
    73  H    0.155056
    74  H    0.092568
    75  H    0.207972
    76  H    0.166388
    77  H    0.209703
    78  H    0.364244
    79  H    0.306958
    80  H    0.381224
    81  H    0.356111
 Sum of Mulliken charges =   1.00000

 Dipole moment (field-independent basis, Debye):
    X=             45.9589    Y=            144.3455    Z=             61.4118  Tot=            163.4603
 Quadrupole moment (field-independent basis, Debye-Ang):
   XX=            188.3084   YY=           4141.8928   ZZ=            559.4921
   XY=           1396.9908   XZ=            584.6533   YZ=           1862.1035

 Normal termination of Gaussian 16 at Fri May 27 05:14:28 2022.
