 Gaussian 16, Revision C.01,
 Gaussian 16:  ES64L-G16RevC.01  3-Jul-2019

 ----------------------------------------------------------------------
 # B3LYP/6-31G* empiricaldispersion=gd3 guess=read geom=check nosymm in
 tegral(ultrafinegrid)
 ----------------------------------------------------------------------

 ------------------------------------------------------
 Candidate Structure: Conf:879 Charge calc in gas phase
 ------------------------------------------------------
 Structure from the checkpoint file:  "conf-879.chk"
 Charge =  1 Multiplicity = 1

                          Input orientation:
 ---------------------------------------------------------------------
 Center     Atomic      Atomic             Coordinates (Angstroms)
 Number     Number       Type             X           Y           Z
 ---------------------------------------------------------------------
      1          7           0       10.770055   30.274046   12.128192
      2          6           0       11.210141   29.642600   13.415495
      3          6           0       11.810460   30.661791   14.419676
      4          8           0       12.667336   30.264238   15.198245
      5          6           0       12.163605   28.458899   13.159137
      6          6           0       11.468359   27.092110   13.197868
      7          6           0       10.445936   26.867060   12.097152
      8          8           0       10.205212   27.675308   11.222400
      9          8           0        9.781414   25.698786   12.111729
     10          1           0       10.082476   25.132351   12.842826
     11          1           0       10.835330   29.665696   11.284531
     12          1           0       10.298105   29.267813   13.882658
     13          1           0       12.681842   28.590320   12.202953
     14          1           0       12.920998   28.478908   13.944720
     15          1           0       10.961632   26.955594   14.164082
     16          1           0       12.218749   26.292190   13.131420
     17          1           0        9.766631   30.491881   12.169309
     18          1           0       11.271960   31.150983   11.873704
     19          7           0       11.413789   31.971556   14.435783
     20          6           0       10.215062   32.703792   14.006857
     21          6           0       10.670627   34.181595   14.027714
     22          8           0       11.085517   34.610343   15.100773
     23          6           0        9.032799   32.529095   15.002625
     24          6           0        8.638239   31.095939   15.182377
     25          6           0        8.888378   30.328570   16.294840
     26          6           0        8.058182   30.208872   14.202406
     27          6           0        7.998767   28.910505   14.789536
     28          6           0        7.646263   30.360423   12.862271
     29          7           0        8.512951   29.019860   16.066303
     30          6           0        7.555838   27.788604   14.080670
     31          6           0        7.222389   29.241840   12.150292
     32          6           0        7.179191   27.968659   12.753370
     33          1           0       11.908711   32.482387   15.164883
     34          1           0        9.886818   32.388043   13.025045
     35          1           0        8.192793   33.128451   14.629005
     36          1           0        9.337338   32.966588   15.957567
     37          1           0        9.330087   30.618647   17.238220
     38          1           0        8.517658   28.288041   16.761006
     39          1           0        7.643527   31.343006   12.401316
     40          1           0        7.514540   26.807798   14.546815
     41          1           0        6.928171   29.347391   11.110576
     42          1           0        6.852744   27.111575   12.173184
     43          7           0       10.631981   35.000983   12.938022
     44          6           0       10.344307   34.864252   11.516580
     45          6           0       10.486073   33.434358   11.010591
     46          8           0       11.523704   32.805335   11.264280
     47          6           0       11.374843   35.755766   10.749623
     48          6           0       11.074202   35.848822    9.256218
     49          8           0       11.441340   37.038043   11.357745
     50          1           0       10.680269   37.565713   11.062993
     51          1           0       11.002032   35.924489   13.155616
     52          1           0        9.341675   35.256557   11.314419
     53          1           0       12.358899   35.307504   10.914201
     54          1           0       10.084863   36.293501    9.080859
     55          1           0       11.098750   34.864420    8.775637
     56          1           0       11.820531   36.483781    8.771728
     57          7           0        9.487113   32.873425   10.284232
     58          6           0        8.267305   33.480888    9.761012
     59          6           0        7.186425   33.776797   10.816573
     60          8           0        6.079622   34.162998   10.533517
     61          6           0        7.642063   32.620510    8.637447
     62          6           0        8.328515   32.685762    7.259812
     63          6           0        9.602272   31.843989    7.056339
     64          7           0        9.396425   30.417031    7.310262
     65          6           0        9.622118   29.842654    8.541504
     66          7           0       10.527984   30.247330    9.396039
     67          7           0        8.789185   28.823742    8.907654
     68          8           0        7.606570   33.608933   12.095446
     69          1           0        6.854526   33.855160   12.669266
     70          1           0        9.696301   31.908255    9.990212
     71          1           0        8.501299   34.461355    9.327805
     72          1           0        6.619830   32.987916    8.519678
     73          1           0        7.558655   31.581247    8.982281
     74          1           0        7.591590   32.357961    6.514879
     75          1           0        8.559479   33.730202    7.009198
     76          1           0        9.952728   31.965568    6.026225
     77          1           0       10.411663   32.197933    7.698243
     78          1           0        8.688442   29.984077    6.729592
     79          1           0       11.210658   30.860415    8.954159
     80          1           0        8.141934   28.431591    8.239691
     81          1           0        9.136280   28.198737    9.631492
 ---------------------------------------------------------------------

 SCF Done:  E(RB3LYP) =  -2054.04761808     A.U. after    1 cycles

 Alpha  occ. eigenvalues --  -19.32060 -19.31359 -19.26039 -19.25664 -19.25417
 Alpha  occ. eigenvalues --  -19.24059 -19.21003 -19.20268 -14.51964 -14.48186
 Alpha  occ. eigenvalues --  -14.48047 -14.46761 -14.45375 -14.45283 -14.45277
 Alpha  occ. eigenvalues --  -14.39796 -10.44217 -10.43848 -10.41448 -10.40459
 Alpha  occ. eigenvalues --  -10.39221 -10.38379 -10.36693 -10.35527 -10.34840
 Alpha  occ. eigenvalues --  -10.34588 -10.33886 -10.33514 -10.32328 -10.32229
 Alpha  occ. eigenvalues --  -10.31888 -10.30858 -10.30314 -10.30238 -10.29355
 Alpha  occ. eigenvalues --  -10.28958 -10.28928 -10.28854 -10.28710 -10.28570
 Alpha  occ. eigenvalues --  -10.28482 -10.28201  -1.22637  -1.22178  -1.16099
 Alpha  occ. eigenvalues --   -1.13976  -1.13591  -1.13484  -1.13096  -1.12424
 Alpha  occ. eigenvalues --   -1.09331  -1.08167  -1.07949  -1.04806  -1.01584
 Alpha  occ. eigenvalues --   -1.01311  -1.00078  -0.95318  -0.94224  -0.91646
 Alpha  occ. eigenvalues --   -0.91222  -0.90362  -0.88363  -0.86016  -0.85846
 Alpha  occ. eigenvalues --   -0.84240  -0.83638  -0.82147  -0.81654  -0.79687
 Alpha  occ. eigenvalues --   -0.77066  -0.76058  -0.74685  -0.73292  -0.72745
 Alpha  occ. eigenvalues --   -0.72437  -0.71626  -0.70382  -0.69770  -0.69572
 Alpha  occ. eigenvalues --   -0.69354  -0.67567  -0.67015  -0.66766  -0.66114
 Alpha  occ. eigenvalues --   -0.64485  -0.63892  -0.63767  -0.63311  -0.62558
 Alpha  occ. eigenvalues --   -0.62335  -0.61837  -0.61336  -0.60893  -0.59894
 Alpha  occ. eigenvalues --   -0.59268  -0.58887  -0.58581  -0.58309  -0.57431
 Alpha  occ. eigenvalues --   -0.57284  -0.56897  -0.56570  -0.56465  -0.55704
 Alpha  occ. eigenvalues --   -0.55467  -0.55252  -0.54918  -0.54349  -0.53872
 Alpha  occ. eigenvalues --   -0.53440  -0.53380  -0.53090  -0.53053  -0.52243
 Alpha  occ. eigenvalues --   -0.52052  -0.51467  -0.51390  -0.51087  -0.50911
 Alpha  occ. eigenvalues --   -0.50436  -0.49894  -0.49477  -0.49223  -0.48405
 Alpha  occ. eigenvalues --   -0.48176  -0.47985  -0.47865  -0.47703  -0.47361
 Alpha  occ. eigenvalues --   -0.46534  -0.46319  -0.45924  -0.45631  -0.45518
 Alpha  occ. eigenvalues --   -0.45460  -0.44767  -0.43948  -0.43826  -0.43322
 Alpha  occ. eigenvalues --   -0.42984  -0.42645  -0.40901  -0.39955  -0.39223
 Alpha  occ. eigenvalues --   -0.38875  -0.37925  -0.37535  -0.36864  -0.36533
 Alpha  occ. eigenvalues --   -0.35608  -0.35058  -0.34234  -0.33752  -0.33528
 Alpha  occ. eigenvalues --   -0.32563  -0.30557
 Alpha virt. eigenvalues --   -0.12152  -0.11852  -0.11093  -0.10891  -0.08521
 Alpha virt. eigenvalues --   -0.08155  -0.07200  -0.06699  -0.05660  -0.05187
 Alpha virt. eigenvalues --   -0.04297  -0.03832  -0.03325  -0.01839  -0.01701

 Mulliken charges:
               1
     1  N   -0.846715
     2  C   -0.085074
     3  C    0.594240
     4  O   -0.486687
     5  C   -0.293055
     6  C   -0.430028
     7  C    0.644253
     8  O   -0.471850
     9  O   -0.550439
    10  H    0.430922
    11  H    0.463700
    12  H    0.223906
    13  H    0.177307
    14  H    0.227725
    15  H    0.187450
    16  H    0.202582
    17  H    0.395994
    18  H    0.442922
    19  N   -0.604432
    20  C   -0.040805
    21  C    0.629391
    22  O   -0.509695
    23  C   -0.346095
    24  C    0.058289
    25  C    0.009238
    26  C    0.056731
    27  C    0.304964
    28  C   -0.306677
    29  N   -0.675170
    30  C   -0.185614
    31  C   -0.127980
    32  C   -0.144773
    33  H    0.368658
    34  H    0.130846
    35  H    0.142246
    36  H    0.190137
    37  H    0.186243
    38  H    0.345202
    39  H    0.160465
    40  H    0.141501
    41  H    0.140785
    42  H    0.150289
    43  N   -0.641475
    44  C    0.005814
    45  C    0.595133
    46  O   -0.560671
    47  C    0.120831
    48  C   -0.497203
    49  O   -0.610178
    50  H    0.401998
    51  H    0.366285
    52  H    0.137611
    53  H    0.191087
    54  H    0.145609
    55  H    0.159773
    56  H    0.199744
    57  N   -0.655017
    58  C   -0.052014
    59  C    0.604034
    60  O   -0.428523
    61  C   -0.321099
    62  C   -0.280150
    63  C   -0.164554
    64  N   -0.581952
    65  C    0.658387
    66  N   -0.766562
    67  N   -0.776143
    68  O   -0.574024
    69  H    0.434348
    70  H    0.384357
    71  H    0.196477
    72  H    0.207420
    73  H    0.164418
    74  H    0.162058
    75  H    0.159272
    76  H    0.184217
    77  H    0.157268
    78  H    0.327874
    79  H    0.311234
    80  H    0.336854
    81  H    0.396562
 Sum of Mulliken charges =   1.00000

 Dipole moment (field-independent basis, Debye):
    X=             42.9251    Y=            144.3269    Z=             51.8697  Tot=            159.2585
 Quadrupole moment (field-independent basis, Debye-Ang):
   XX=            129.7323   YY=           4165.0920   ZZ=            372.8694
   XY=           1278.3216   XZ=            453.9620   YZ=           1515.3958

 Normal termination of Gaussian 16 at Fri May 27 05:13:51 2022.
