 Gaussian 16, Revision C.01,
 Gaussian 16:  ES64L-G16RevC.01  3-Jul-2019

 ----------------------------------------------------------------------
 # B3LYP/6-31G* empiricaldispersion=gd3 guess=read geom=check nosymm in
 tegral(ultrafinegrid)
 ----------------------------------------------------------------------

 ------------------------------------------------------
 Candidate Structure: Conf:474 Charge calc in gas phase
 ------------------------------------------------------
 Structure from the checkpoint file:  "conf-474.chk"
 Charge =  1 Multiplicity = 1

                          Input orientation:
 ---------------------------------------------------------------------
 Center     Atomic      Atomic             Coordinates (Angstroms)
 Number     Number       Type             X           Y           Z
 ---------------------------------------------------------------------
      1          7           0       11.514685   30.719553    9.882251
      2          6           0       12.897018   31.380459    9.905748
      3          6           0       13.826329   31.019133   11.093353
      4          8           0       14.993621   30.806005   10.797123
      5          6           0       12.808707   32.912520    9.827029
      6          6           0       12.187092   33.492880    8.532447
      7          6           0       10.740746   33.908094    8.689340
      8          8           0       10.297731   34.993015    8.374776
      9          8           0        9.965498   32.947123    9.245022
     10          1           0        9.003877   33.323628    9.362295
     11          1           0       11.451992   30.033242    9.125297
     12          1           0       13.420475   30.997048    9.030057
     13          1           0       12.299967   33.300951   10.716737
     14          1           0       13.845639   33.253688    9.897945
     15          1           0       12.257243   32.771039    7.707038
     16          1           0       12.731428   34.384201    8.215792
     17          1           0       11.331989   30.166691   10.738728
     18          1           0       10.765512   31.430513    9.739930
     19          7           0       13.413595   31.180744   12.377966
     20          6           0       12.111622   31.075354   13.018917
     21          6           0       12.164329   32.025339   14.244501
     22          8           0       13.250344   32.326516   14.721912
     23          6           0       11.828104   29.594786   13.432675
     24          6           0       11.683150   28.694011   12.240263
     25          6           0       12.689140   28.209834   11.427716
     26          6           0       10.434755   28.235950   11.661457
     27          6           0       10.759396   27.516679   10.477670
     28          6           0        9.086752   28.318788   12.067772
     29          7           0       12.139184   27.546341   10.345428
     30          6           0        9.782317   26.922495    9.668670
     31          6           0        8.119624   27.710119   11.275354
     32          6           0        8.460988   27.033997   10.082350
     33          1           0       14.178073   31.204203   13.051496
     34          1           0       11.331388   31.439196   12.342344
     35          1           0       10.920502   29.538469   14.038670
     36          1           0       12.657760   29.279623   14.074660
     37          1           0       13.761779   28.304482   11.523558
     38          1           0       12.667072   26.956823    9.716532
     39          1           0        8.822184   28.790032   13.011193
     40          1           0       10.048466   26.369949    8.772096
     41          1           0        7.084305   27.701035   11.605621
     42          1           0        7.678733   26.563180    9.494809
     43          7           0       10.985595   32.531122   14.690478
     44          6           0        9.643054   32.000541   14.489437
     45          6           0        8.703587   33.221770   14.432139
     46          8           0        8.977224   34.204869   15.108850
     47          6           0        9.287445   30.968223   15.621738
     48          6           0        8.575190   31.574521   16.824347
     49          8           0        8.573736   29.876718   15.043217
     50          1           0        7.657007   29.884923   15.364487
     51          1           0       11.063160   33.229911   15.424518
     52          1           0        9.617575   31.446169   13.552894
     53          1           0       10.254655   30.565453   15.947993
     54          1           0        8.469854   30.819160   17.609027
     55          1           0        7.580691   31.937098   16.545568
     56          1           0        9.142180   32.419493   17.225365
     57          7           0        7.597954   33.207197   13.630518
     58          6           0        7.042316   32.188135   12.756883
     59          6           0        6.435673   31.014795   13.558520
     60          8           0        6.035851   31.135606   14.688959
     61          6           0        7.957981   31.798248   11.564943
     62          6           0        7.242516   31.534995   10.221605
     63          6           0        6.572970   32.753654    9.554217
     64          7           0        7.477154   33.923554    9.509904
     65          6           0        7.399971   34.879930   10.619031
     66          7           0        6.439310   35.028244   11.450115
     67          7           0        8.565017   35.582998   10.740184
     68          8           0        6.277665   29.840204   12.906940
     69          1           0        6.769651   29.818198   12.071418
     70          1           0        7.110123   34.097984   13.619399
     71          1           0        6.157035   32.669865   12.332867
     72          1           0        8.552668   30.909953   11.810189
     73          1           0        8.672341   32.615919   11.440176
     74          1           0        7.982777   31.121396    9.525538
     75          1           0        6.470648   30.760775   10.324641
     76          1           0        6.318871   32.491153    8.523849
     77          1           0        5.623600   32.997506   10.043973
     78          1           0        7.387916   34.432096    8.629543
     79          1           0        5.612464   34.490686   11.200998
     80          1           0        9.172318   35.657545    9.930641
     81          1           0        8.510397   36.399166   11.336510
 ---------------------------------------------------------------------

 SCF Done:  E(RB3LYP) =  -2054.00420297     A.U. after    3 cycles

 Alpha  occ. eigenvalues --  -19.32297 -19.30431 -19.27193 -19.24539 -19.24148
 Alpha  occ. eigenvalues --  -19.23688 -19.22026 -19.21029 -14.58995 -14.50990
 Alpha  occ. eigenvalues --  -14.49392 -14.47938 -14.46206 -14.45935 -14.45303
 Alpha  occ. eigenvalues --  -14.41047 -10.45551 -10.42934 -10.42137 -10.40603
 Alpha  occ. eigenvalues --  -10.40015 -10.39742 -10.38870 -10.36765 -10.36246
 Alpha  occ. eigenvalues --  -10.35693 -10.34683 -10.34634 -10.34468 -10.34086
 Alpha  occ. eigenvalues --  -10.34005 -10.33760 -10.32966 -10.32592 -10.31612
 Alpha  occ. eigenvalues --  -10.31377 -10.31211 -10.31040 -10.30389 -10.30300
 Alpha  occ. eigenvalues --  -10.30039 -10.25982  -1.23141  -1.21076  -1.16379
 Alpha  occ. eigenvalues --   -1.14523  -1.14316  -1.13558  -1.13402  -1.12763
 Alpha  occ. eigenvalues --   -1.11733  -1.10682  -1.09675  -1.04651  -1.02997
 Alpha  occ. eigenvalues --   -1.02728  -1.01356  -0.96387  -0.96103  -0.95061
 Alpha  occ. eigenvalues --   -0.92916  -0.92505  -0.88538  -0.87521  -0.86836
 Alpha  occ. eigenvalues --   -0.85818  -0.85693  -0.84082  -0.81173  -0.80070
 Alpha  occ. eigenvalues --   -0.79116  -0.78449  -0.74681  -0.74362  -0.73873
 Alpha  occ. eigenvalues --   -0.73717  -0.73364  -0.72585  -0.72268  -0.71366
 Alpha  occ. eigenvalues --   -0.70942  -0.70365  -0.69239  -0.68237  -0.68026
 Alpha  occ. eigenvalues --   -0.67226  -0.65935  -0.65836  -0.64332  -0.64024
 Alpha  occ. eigenvalues --   -0.63068  -0.62711  -0.61768  -0.61291  -0.60870
 Alpha  occ. eigenvalues --   -0.60392  -0.59956  -0.59572  -0.59458  -0.59119
 Alpha  occ. eigenvalues --   -0.58931  -0.57891  -0.57347  -0.57217  -0.56805
 Alpha  occ. eigenvalues --   -0.56273  -0.56033  -0.55722  -0.55236  -0.55219
 Alpha  occ. eigenvalues --   -0.54902  -0.54487  -0.54374  -0.54004  -0.53532
 Alpha  occ. eigenvalues --   -0.53441  -0.53133  -0.52784  -0.52517  -0.52083
 Alpha  occ. eigenvalues --   -0.51326  -0.50736  -0.50378  -0.50336  -0.50033
 Alpha  occ. eigenvalues --   -0.49526  -0.49173  -0.49145  -0.48482  -0.48147
 Alpha  occ. eigenvalues --   -0.48003  -0.47578  -0.47350  -0.47035  -0.46690
 Alpha  occ. eigenvalues --   -0.45929  -0.45545  -0.45334  -0.45107  -0.45071
 Alpha  occ. eigenvalues --   -0.42887  -0.41798  -0.41643  -0.40355  -0.40248
 Alpha  occ. eigenvalues --   -0.38521  -0.38049  -0.37803  -0.37743  -0.37189
 Alpha  occ. eigenvalues --   -0.36043  -0.35936  -0.35208  -0.35017  -0.34807
 Alpha  occ. eigenvalues --   -0.33990  -0.32986
 Alpha virt. eigenvalues --   -0.14057  -0.13106  -0.11693  -0.10874  -0.10596
 Alpha virt. eigenvalues --   -0.10047  -0.08921  -0.08446  -0.08065  -0.07102
 Alpha virt. eigenvalues --   -0.06207  -0.05084  -0.04114  -0.03297  -0.03001

 Mulliken charges:
               1
     1  N   -0.837186
     2  C   -0.078229
     3  C    0.566763
     4  O   -0.477203
     5  C   -0.320622
     6  C   -0.373506
     7  C    0.611266
     8  O   -0.462496
     9  O   -0.672676
    10  H    0.494141
    11  H    0.408571
    12  H    0.217219
    13  H    0.194017
    14  H    0.229128
    15  H    0.184008
    16  H    0.224814
    17  H    0.425515
    18  H    0.451157
    19  N   -0.569349
    20  C   -0.105848
    21  C    0.618638
    22  O   -0.490031
    23  C   -0.365116
    24  C   -0.001895
    25  C   -0.013046
    26  C    0.030930
    27  C    0.283623
    28  C   -0.243203
    29  N   -0.680730
    30  C   -0.171034
    31  C   -0.191447
    32  C   -0.147975
    33  H    0.376127
    34  H    0.130779
    35  H    0.210819
    36  H    0.192350
    37  H    0.209096
    38  H    0.357041
    39  H    0.215776
    40  H    0.156582
    41  H    0.168411
    42  H    0.161199
    43  N   -0.595954
    44  C   -0.103483
    45  C    0.634754
    46  O   -0.506440
    47  C    0.154653
    48  C   -0.516038
    49  O   -0.654325
    50  H    0.435875
    51  H    0.368622
    52  H    0.144961
    53  H    0.153594
    54  H    0.175890
    55  H    0.197923
    56  H    0.180646
    57  N   -0.604547
    58  C   -0.054551
    59  C    0.615029
    60  O   -0.449532
    61  C   -0.376509
    62  C   -0.296295
    63  C   -0.147623
    64  N   -0.704916
    65  C    0.583498
    66  N   -0.622836
    67  N   -0.761676
    68  O   -0.577764
    69  H    0.431375
    70  H    0.374538
    71  H    0.185649
    72  H    0.161795
    73  H    0.182812
    74  H    0.147813
    75  H    0.166080
    76  H    0.182750
    77  H    0.165328
    78  H    0.370788
    79  H    0.299351
    80  H    0.377857
    81  H    0.364526
 Sum of Mulliken charges =   1.00000

 Dipole moment (field-independent basis, Debye):
    X=             47.1853    Y=            146.9478    Z=             44.0031  Tot=            160.4880
 Quadrupole moment (field-independent basis, Debye-Ang):
   XX=            232.8503   YY=           4274.5947   ZZ=            158.6738
   XY=           1427.7343   XZ=            433.1048   YZ=           1335.4700

 Normal termination of Gaussian 16 at Fri May 27 05:14:59 2022.
