 Gaussian 16, Revision C.01,
 Gaussian 16:  ES64L-G16RevC.01  3-Jul-2019

 ----------------------------------------------------------------------
 # B3LYP/6-31G* empiricaldispersion=gd3 guess=read geom=check nosymm in
 tegral(ultrafinegrid)
 ----------------------------------------------------------------------

 ------------------------------------------------------
 Candidate Structure: Conf:123 Charge calc in gas phase
 ------------------------------------------------------
 Structure from the checkpoint file:  "conf-123.chk"
 Charge =  1 Multiplicity = 1

                          Input orientation:
 ---------------------------------------------------------------------
 Center     Atomic      Atomic             Coordinates (Angstroms)
 Number     Number       Type             X           Y           Z
 ---------------------------------------------------------------------
      1          7           0       10.136623   33.827743   13.052492
      2          6           0        8.941849   34.714146   12.736269
      3          6           0        7.697548   34.455767   13.623574
      4          8           0        7.326030   35.368178   14.346092
      5          6           0        8.573018   34.696853   11.241953
      6          6           0        9.467220   35.547951   10.312889
      7          6           0       10.660751   34.836738    9.708842
      8          8           0       10.988966   34.953421    8.548193
      9          8           0       11.327630   34.055342   10.586114
     10          1           0       12.073585   33.491878   10.108257
     11          1           0        9.892426   32.833205   13.122169
     12          1           0        9.259700   35.717888   13.023060
     13          1           0        8.490314   33.668494   10.871450
     14          1           0        7.560435   35.108537   11.190901
     15          1           0        9.831664   36.438010   10.844268
     16          1           0        8.878649   35.914614    9.469279
     17          1           0       10.835941   33.928886   12.283593
     18          1           0       10.544282   34.051864   13.969522
     19          7           0        6.958794   33.328775   13.420313
     20          6           0        7.369646   31.989662   13.032403
     21          6           0        6.295375   31.424971   12.076559
     22          8           0        5.158441   31.865674   12.099490
     23          6           0        7.608923   31.126314   14.309672
     24          6           0        8.867963   31.545139   15.008627
     25          6           0        9.074004   32.674370   15.765623
     26          6           0       10.151526   30.881582   14.888442
     27          6           0       11.101240   31.680708   15.577476
     28          6           0       10.566039   29.662572   14.315693
     29          7           0       10.430489   32.806087   16.055472
     30          6           0       12.442531   31.304090   15.705704
     31          6           0       11.894374   29.279235   14.449240
     32          6           0       12.821788   30.093545   15.135346
     33          1           0        6.032267   33.371438   13.836836
     34          1           0        8.298815   32.050046   12.461483
     35          1           0        7.675435   30.067183   14.047012
     36          1           0        6.725791   31.231883   14.949072
     37          1           0        8.370769   33.424907   16.099674
     38          1           0       10.774035   33.367197   16.824513
     39          1           0        9.861847   29.009530   13.807927
     40          1           0       13.154299   31.918915   16.249248
     41          1           0       12.225036   28.343873   14.008929
     42          1           0       13.851745   29.762519   15.226469
     43          7           0        6.720539   30.498601   11.161776
     44          6           0        7.838207   29.572810   11.282020
     45          6           0        8.400371   29.315071    9.875657
     46          8           0        7.592329   29.187301    8.963530
     47          6           0        7.348763   28.245435   11.934351
     48          6           0        6.451311   27.367898   11.071860
     49          8           0        8.544312   27.557374   12.330863
     50          1           0        8.321194   26.662236   12.635052
     51          1           0        6.023398   30.232581   10.472111
     52          1           0        8.591574   29.987805   11.947789
     53          1           0        6.796884   28.542493   12.837599
     54          1           0        6.970649   27.021095   10.175975
     55          1           0        5.553874   27.908764   10.758903
     56          1           0        6.121706   26.499735   11.654714
     57          7           0        9.739687   29.100346    9.651221
     58          6           0       11.020188   29.522154   10.254642
     59          6           0       11.780618   28.425144   11.025609
     60          8           0       12.991972   28.478996   11.083527
     61          6           0       10.992810   30.855487   11.036075
     62          6           0       12.339776   31.318176   11.631707
     63          6           0       13.530650   31.572439   10.696509
     64          7           0       13.238934   32.492562    9.567509
     65          6           0       12.970013   31.895830    8.256862
     66          7           0       13.030774   30.658144    7.935093
     67          7           0       12.672004   32.863938    7.344515
     68          8           0       11.102307   27.456659   11.634850
     69          1           0       10.124933   27.559314   11.561730
     70          1           0        9.855341   28.831364    8.677658
     71          1           0       11.652385   29.709857    9.387130
     72          1           0       10.308440   30.771242   11.885807
     73          1           0       10.584347   31.613161   10.357484
     74          1           0       12.145359   32.232794   12.205153
     75          1           0       12.674072   30.585702   12.367012
     76          1           0       14.327667   32.030481   11.289352
     77          1           0       13.920754   30.615508   10.345854
     78          1           0       14.003561   33.156017    9.438834
     79          1           0       13.480024   30.078201    8.641503
     80          1           0       12.169092   33.696008    7.640562
     81          1           0       12.466957   32.518224    6.416308
 ---------------------------------------------------------------------

 SCF Done:  E(RB3LYP) =  -2054.01345454     A.U. after    3 cycles

 Alpha  occ. eigenvalues --  -19.31544 -19.29342 -19.27849 -19.26513 -19.24592
 Alpha  occ. eigenvalues --  -19.23342 -19.22863 -19.22496 -14.59389 -14.50782
 Alpha  occ. eigenvalues --  -14.48814 -14.47882 -14.47736 -14.47613 -14.43025
 Alpha  occ. eigenvalues --  -14.38863 -10.44854 -10.42734 -10.41211 -10.40961
 Alpha  occ. eigenvalues --  -10.40683 -10.40247 -10.38579 -10.37644 -10.37137
 Alpha  occ. eigenvalues --  -10.36432 -10.35056 -10.34640 -10.34494 -10.34263
 Alpha  occ. eigenvalues --  -10.33248 -10.33101 -10.32666 -10.32125 -10.31481
 Alpha  occ. eigenvalues --  -10.30934 -10.30631 -10.30548 -10.29961 -10.29739
 Alpha  occ. eigenvalues --  -10.29090 -10.28553  -1.22277  -1.19157  -1.17137
 Alpha  occ. eigenvalues --   -1.16354  -1.15539  -1.14932  -1.14442  -1.13421
 Alpha  occ. eigenvalues --   -1.10649  -1.10249  -1.07742  -1.05667  -1.04507
 Alpha  occ. eigenvalues --   -1.03264  -0.99284  -0.95718  -0.95049  -0.94199
 Alpha  occ. eigenvalues --   -0.93179  -0.91495  -0.89744  -0.88508  -0.87292
 Alpha  occ. eigenvalues --   -0.85204  -0.84943  -0.83896  -0.83162  -0.79908
 Alpha  occ. eigenvalues --   -0.79056  -0.78718  -0.75612  -0.74766  -0.73838
 Alpha  occ. eigenvalues --   -0.73624  -0.72486  -0.72338  -0.71795  -0.71198
 Alpha  occ. eigenvalues --   -0.70984  -0.69576  -0.69174  -0.68239  -0.67759
 Alpha  occ. eigenvalues --   -0.66352  -0.65568  -0.65525  -0.64847  -0.63815
 Alpha  occ. eigenvalues --   -0.63344  -0.62363  -0.61906  -0.61295  -0.61154
 Alpha  occ. eigenvalues --   -0.60595  -0.60029  -0.59967  -0.59441  -0.58990
 Alpha  occ. eigenvalues --   -0.58886  -0.58639  -0.57926  -0.57503  -0.57188
 Alpha  occ. eigenvalues --   -0.56523  -0.55991  -0.55565  -0.55276  -0.54759
 Alpha  occ. eigenvalues --   -0.54568  -0.54374  -0.53958  -0.53664  -0.53444
 Alpha  occ. eigenvalues --   -0.53083  -0.52977  -0.52661  -0.52543  -0.51695
 Alpha  occ. eigenvalues --   -0.51237  -0.51005  -0.50725  -0.50592  -0.49956
 Alpha  occ. eigenvalues --   -0.49707  -0.49599  -0.49322  -0.49071  -0.48696
 Alpha  occ. eigenvalues --   -0.48424  -0.48024  -0.47264  -0.46682  -0.46534
 Alpha  occ. eigenvalues --   -0.46462  -0.45387  -0.45084  -0.44872  -0.44565
 Alpha  occ. eigenvalues --   -0.44263  -0.41341  -0.40355  -0.40166  -0.40047
 Alpha  occ. eigenvalues --   -0.38980  -0.38766  -0.38391  -0.38129  -0.37590
 Alpha  occ. eigenvalues --   -0.36850  -0.36309  -0.35814  -0.34863  -0.34436
 Alpha  occ. eigenvalues --   -0.33085  -0.32852
 Alpha virt. eigenvalues --   -0.13779  -0.13052  -0.11763  -0.11201  -0.10499
 Alpha virt. eigenvalues --   -0.10113  -0.09144  -0.08074  -0.06856  -0.06620
 Alpha virt. eigenvalues --   -0.05784  -0.05191  -0.04260  -0.03567  -0.03161

 Mulliken charges:
               1
     1  N   -0.814554
     2  C   -0.103588
     3  C    0.575673
     4  O   -0.469901
     5  C   -0.314683
     6  C   -0.377261
     7  C    0.614460
     8  O   -0.445313
     9  O   -0.667037
    10  H    0.476887
    11  H    0.423351
    12  H    0.223095
    13  H    0.183047
    14  H    0.225425
    15  H    0.197782
    16  H    0.222346
    17  H    0.454078
    18  H    0.417288
    19  N   -0.555797
    20  C   -0.097119
    21  C    0.610309
    22  O   -0.474107
    23  C   -0.362535
    24  C    0.041487
    25  C   -0.050176
    26  C    0.056102
    27  C    0.269780
    28  C   -0.241506
    29  N   -0.695800
    30  C   -0.166182
    31  C   -0.158766
    32  C   -0.149862
    33  H    0.369494
    34  H    0.122289
    35  H    0.182202
    36  H    0.191377
    37  H    0.203470
    38  H    0.358149
    39  H    0.168471
    40  H    0.153681
    41  H    0.184893
    42  H    0.165046
    43  N   -0.598073
    44  C   -0.095844
    45  C    0.620222
    46  O   -0.495894
    47  C    0.144212
    48  C   -0.481953
    49  O   -0.650673
    50  H    0.431280
    51  H    0.368866
    52  H    0.152284
    53  H    0.153408
    54  H    0.195741
    55  H    0.180445
    56  H    0.164367
    57  N   -0.643577
    58  C   -0.075229
    59  C    0.616987
    60  O   -0.467827
    61  C   -0.324278
    62  C   -0.276525
    63  C   -0.165234
    64  N   -0.702788
    65  C    0.578438
    66  N   -0.624766
    67  N   -0.767381
    68  O   -0.590420
    69  H    0.454775
    70  H    0.365144
    71  H    0.206416
    72  H    0.141398
    73  H    0.155103
    74  H    0.092536
    75  H    0.208024
    76  H    0.166382
    77  H    0.209694
    78  H    0.364312
    79  H    0.307005
    80  H    0.381301
    81  H    0.356124
 Sum of Mulliken charges =   1.00000

 Dipole moment (field-independent basis, Debye):
    X=             49.2286    Y=            155.5691    Z=             63.3076  Tot=            175.0231
 Quadrupole moment (field-independent basis, Debye-Ang):
   XX=            271.0174   YY=           4829.7053   ZZ=            603.8220
   XY=           1627.2924   XZ=            650.9935   YZ=           2044.0839

 Normal termination of Gaussian 16 at Fri May 27 05:14:49 2022.
