 Gaussian 16, Revision C.01,
 Gaussian 16:  ES64L-G16RevC.01  3-Jul-2019

 ----------------------------------------------------------------------
 # B3LYP/6-31G* empiricaldispersion=gd3 guess=read geom=check nosymm in
 tegral(ultrafinegrid)
 ----------------------------------------------------------------------

 ------------------------------------------------------
 Candidate Structure: Conf:291 Charge calc in gas phase
 ------------------------------------------------------
 Structure from the checkpoint file:  "conf-291.chk"
 Charge =  1 Multiplicity = 1

                          Input orientation:
 ---------------------------------------------------------------------
 Center     Atomic      Atomic             Coordinates (Angstroms)
 Number     Number       Type             X           Y           Z
 ---------------------------------------------------------------------
      1          7           0       12.830587   30.683560   12.452965
      2          6           0       12.929584   30.847890   10.949932
      3          6           0       13.323317   32.309768   10.602634
      4          8           0       14.511206   32.534677   10.419049
      5          6           0       11.699564   30.276911   10.220126
      6          6           0       11.837247   28.831437    9.702487
      7          6           0       11.726496   27.731813   10.732555
      8          8           0       11.043714   26.744593   10.640525
      9          8           0       12.525730   27.948910   11.836159
     10          1           0       12.425857   27.163834   12.411202
     11          1           0       13.663550   31.072451   12.918510
     12          1           0       13.823485   30.284256   10.676850
     13          1           0       10.802027   30.357482   10.837898
     14          1           0       11.521321   30.916033    9.350101
     15          1           0       12.797414   28.707735    9.184088
     16          1           0       11.052084   28.633825    8.969733
     17          1           0       12.034865   31.186273   12.878905
     18          1           0       12.746678   29.676029   12.662781
     19          7           0       12.345912   33.231232   10.404382
     20          6           0       11.037729   33.366165   11.034451
     21          6           0       10.089926   33.886545    9.931551
     22          8           0       10.548730   34.541243    9.006553
     23          6           0       11.137360   34.308619   12.271955
     24          6           0       12.042420   33.730390   13.318381
     25          6           0       13.412431   33.815051   13.363630
     26          6           0       11.647109   32.831366   14.384066
     27          6           0       12.836850   32.409234   15.041615
     28          6           0       10.407274   32.336272   14.835655
     29          7           0       13.907194   32.984379   14.362254
     30          6           0       12.821112   31.521081   16.121525
     31          6           0       10.385831   31.449507   15.906412
     32          6           0       11.580359   31.049673   16.540768
     33          1           0       12.669101   34.082721    9.952232
     34          1           0       10.689788   32.387235   11.368754
     35          1           0       10.135502   34.469607   12.685826
     36          1           0       11.496553   35.283643   11.924513
     37          1           0       14.091750   34.366167   12.728425
     38          1           0       14.839181   33.070286   14.746018
     39          1           0        9.474166   32.674588   14.394688
     40          1           0       13.738187   31.221009   16.620910
     41          1           0        9.430407   31.069352   16.249512
     42          1           0       11.529944   30.366039   17.382791
     43          7           0        8.784388   33.483814    9.966177
     44          6           0        7.913126   33.269424   11.114719
     45          6           0        6.845158   32.242638   10.686711
     46          8           0        6.370485   32.345074    9.559903
     47          6           0        7.221054   34.610048   11.528758
     48          6           0        6.682185   35.432969   10.362899
     49          8           0        6.150450   34.226858   12.402639
     50          1           0        5.705742   35.018343   12.745345
     51          1           0        8.268067   33.737002    9.127702
     52          1           0        8.494697   32.905916   11.963494
     53          1           0        7.964795   35.200935   12.086358
     54          1           0        6.128494   36.294700   10.752613
     55          1           0        6.009194   34.831166    9.746848
     56          1           0        7.493857   35.825729    9.743113
     57          7           0        6.401014   31.308850   11.580985
     58          6           0        7.141246   30.603588   12.635952
     59          6           0        7.168980   31.199675   14.052113
     60          8           0        7.557470   30.493641   14.960979
     61          6           0        8.600335   30.212283   12.255407
     62          6           0        9.023014   28.808814   12.708611
     63          6           0        8.298080   27.654067   11.973459
     64          7           0        8.155919   27.891088   10.544617
     65          6           0        7.022635   28.482749    9.990702
     66          7           0        5.856647   28.615316   10.532007
     67          7           0        7.248360   29.000532    8.727277
     68          8           0        6.868275   32.479795   14.254102
     69          1           0        6.477565   32.946843   13.471803
     70          1           0        5.753217   30.661815   11.115940
     71          1           0        6.579329   29.678108   12.758234
     72          1           0        9.299918   30.939144   12.687826
     73          1           0        8.685093   30.279853   11.166038
     74          1           0       10.104180   28.711240   12.539827
     75          1           0        8.864070   28.716447   13.787766
     76          1           0        8.859779   26.728048   12.117237
     77          1           0        7.317172   27.484301   12.428486
     78          1           0        8.766088   27.373870    9.925817
     79          1           0        5.743173   27.998053   11.335588
     80          1           0        8.123276   29.493070    8.597349
     81          1           0        6.449324   29.507861    8.363182
 ---------------------------------------------------------------------

 SCF Done:  E(RB3LYP) =  -2054.00575915     A.U. after    1 cycles

 Alpha  occ. eigenvalues --  -19.35319 -19.28836 -19.27996 -19.27382 -19.24902
 Alpha  occ. eigenvalues --  -19.23325 -19.22037 -19.21920 -14.60132 -14.50701
 Alpha  occ. eigenvalues --  -14.48882 -14.47358 -14.45178 -14.44169 -14.42773
 Alpha  occ. eigenvalues --  -14.37503 -10.46942 -10.42930 -10.40866 -10.40833
 Alpha  occ. eigenvalues --  -10.40666 -10.39288 -10.37290 -10.37268 -10.36383
 Alpha  occ. eigenvalues --  -10.35712 -10.35539 -10.34899 -10.34345 -10.34305
 Alpha  occ. eigenvalues --  -10.34244 -10.32492 -10.32032 -10.31145 -10.30981
 Alpha  occ. eigenvalues --  -10.30828 -10.30654 -10.30120 -10.29727 -10.29492
 Alpha  occ. eigenvalues --  -10.28804 -10.27569  -1.25295  -1.18653  -1.17500
 Alpha  occ. eigenvalues --   -1.16566  -1.15620  -1.15089  -1.14625  -1.13668
 Alpha  occ. eigenvalues --   -1.10279  -1.10135  -1.06463  -1.05716  -1.04030
 Alpha  occ. eigenvalues --   -1.02106  -0.97767  -0.96176  -0.95669  -0.93086
 Alpha  occ. eigenvalues --   -0.92805  -0.90117  -0.89196  -0.88662  -0.87766
 Alpha  occ. eigenvalues --   -0.85126  -0.83905  -0.83592  -0.82294  -0.80764
 Alpha  occ. eigenvalues --   -0.79355  -0.77911  -0.75971  -0.75324  -0.73786
 Alpha  occ. eigenvalues --   -0.73635  -0.72368  -0.71762  -0.71282  -0.70945
 Alpha  occ. eigenvalues --   -0.70856  -0.69909  -0.68946  -0.68114  -0.67203
 Alpha  occ. eigenvalues --   -0.66805  -0.65545  -0.64540  -0.64195  -0.63623
 Alpha  occ. eigenvalues --   -0.62919  -0.62033  -0.61949  -0.61605  -0.60943
 Alpha  occ. eigenvalues --   -0.60393  -0.60202  -0.59982  -0.59275  -0.58668
 Alpha  occ. eigenvalues --   -0.58415  -0.58251  -0.57738  -0.57152  -0.57085
 Alpha  occ. eigenvalues --   -0.56387  -0.55898  -0.55559  -0.55331  -0.54739
 Alpha  occ. eigenvalues --   -0.54537  -0.53959  -0.53791  -0.53490  -0.53233
 Alpha  occ. eigenvalues --   -0.53140  -0.52851  -0.52522  -0.52263  -0.51971
 Alpha  occ. eigenvalues --   -0.51456  -0.51092  -0.50843  -0.50365  -0.49816
 Alpha  occ. eigenvalues --   -0.49304  -0.48981  -0.48771  -0.48540  -0.48312
 Alpha  occ. eigenvalues --   -0.47803  -0.47156  -0.46961  -0.46271  -0.46167
 Alpha  occ. eigenvalues --   -0.45928  -0.45220  -0.45059  -0.44987  -0.44589
 Alpha  occ. eigenvalues --   -0.43670  -0.42154  -0.40345  -0.40142  -0.39705
 Alpha  occ. eigenvalues --   -0.39292  -0.38470  -0.37486  -0.37139  -0.36804
 Alpha  occ. eigenvalues --   -0.35834  -0.35019  -0.34468  -0.34167  -0.33980
 Alpha  occ. eigenvalues --   -0.32753  -0.31890
 Alpha virt. eigenvalues --   -0.14441  -0.13407  -0.13327  -0.11341  -0.10218
 Alpha virt. eigenvalues --   -0.09632  -0.08960  -0.08274  -0.06995  -0.06602
 Alpha virt. eigenvalues --   -0.05691  -0.05494  -0.04477  -0.04246  -0.03362

 Mulliken charges:
               1
     1  N   -0.780905
     2  C   -0.095495
     3  C    0.581930
     4  O   -0.475208
     5  C   -0.345105
     6  C   -0.363423
     7  C    0.611017
     8  O   -0.420560
     9  O   -0.611512
    10  H    0.440889
    11  H    0.425946
    12  H    0.230764
    13  H    0.192505
    14  H    0.221470
    15  H    0.215935
    16  H    0.207964
    17  H    0.420122
    18  H    0.430848
    19  N   -0.563408
    20  C   -0.089833
    21  C    0.606093
    22  O   -0.483881
    23  C   -0.361652
    24  C    0.064969
    25  C   -0.019268
    26  C    0.007046
    27  C    0.267084
    28  C   -0.242152
    29  N   -0.688065
    30  C   -0.180308
    31  C   -0.145616
    32  C   -0.154248
    33  H    0.369651
    34  H    0.135273
    35  H    0.176150
    36  H    0.187786
    37  H    0.196152
    38  H    0.358408
    39  H    0.160887
    40  H    0.154874
    41  H    0.200066
    42  H    0.162741
    43  N   -0.601869
    44  C   -0.105877
    45  C    0.621616
    46  O   -0.513258
    47  C    0.146803
    48  C   -0.494779
    49  O   -0.649113
    50  H    0.430134
    51  H    0.367866
    52  H    0.148927
    53  H    0.146026
    54  H    0.163180
    55  H    0.208574
    56  H    0.173182
    57  N   -0.627672
    58  C   -0.067086
    59  C    0.595655
    60  O   -0.462351
    61  C   -0.302277
    62  C   -0.275553
    63  C   -0.147454
    64  N   -0.631763
    65  C    0.600103
    66  N   -0.673680
    67  N   -0.729561
    68  O   -0.603808
    69  H    0.477394
    70  H    0.385930
    71  H    0.195217
    72  H    0.129791
    73  H    0.159522
    74  H    0.082026
    75  H    0.195755
    76  H    0.176051
    77  H    0.163293
    78  H    0.350432
    79  H    0.289849
    80  H    0.312628
    81  H    0.360212
 Sum of Mulliken charges =   1.00000

 Dipole moment (field-independent basis, Debye):
    X=             57.1540    Y=            149.9101    Z=             60.5492  Tot=            171.4813
 Quadrupole moment (field-independent basis, Debye-Ang):
   XX=            456.3982   YY=           4476.8653   ZZ=            519.6420
   XY=           1757.8593   XZ=            732.1839   YZ=           1895.2993

 Normal termination of Gaussian 16 at Fri May 27 05:13:48 2022.
