 Gaussian 16, Revision C.01,
 Gaussian 16:  ES64L-G16RevC.01  3-Jul-2019

 ----------------------------------------------------------------------
 # B3LYP/6-31G* empiricaldispersion=gd3 guess=read geom=check nosymm in
 tegral(ultrafinegrid)
 ----------------------------------------------------------------------

 ------------------------------------------------------
 Candidate Structure: Conf:962 Charge calc in gas phase
 ------------------------------------------------------
 Structure from the checkpoint file:  "conf-962.chk"
 Charge =  1 Multiplicity = 1

                          Input orientation:
 ---------------------------------------------------------------------
 Center     Atomic      Atomic             Coordinates (Angstroms)
 Number     Number       Type             X           Y           Z
 ---------------------------------------------------------------------
      1          7           0       12.864833   30.854455   11.704720
      2          6           0       12.693983   32.267458   12.214960
      3          6           0       12.905152   32.196154   13.757220
      4          8           0       14.043199   31.922472   14.117258
      5          6           0       11.450820   32.957614   11.637328
      6          6           0       11.647622   33.795797   10.360578
      7          6           0       11.867678   33.084947    9.047554
      8          8           0       11.456280   33.463883    7.976081
      9          8           0       12.631813   31.949856    9.139886
     10          1           0       12.758564   31.617850    8.228786
     11          1           0       12.040057   30.255377   11.911262
     12          1           0       13.593470   32.792863   11.882066
     13          1           0       10.643694   32.239814   11.481914
     14          1           0       11.088609   33.656259   12.395155
     15          1           0       12.493299   34.486133   10.490150
     16          1           0       10.757847   34.412938   10.208237
     17          1           0       12.999763   30.873422   10.685231
     18          1           0       13.669794   30.417346   12.171164
     19          7           0       11.885514   32.537794   14.585742
     20          6           0       10.504335   32.049515   14.462008
     21          6           0        9.560605   33.249107   14.637695
     22          8           0        9.807107   34.094662   15.483269
     23          6           0       10.271222   30.885233   15.471396
     24          6           0       11.285330   29.816103   15.200487
     25          6           0       12.437716   29.543142   15.896599
     26          6           0       11.373931   29.077772   13.968270
     27          6           0       12.627875   28.398090   13.968899
     28          6           0       10.518283   28.945164   12.854312
     29          7           0       13.240001   28.687925   15.167813
     30          6           0       13.059726   27.640628   12.872041
     31          6           0       10.947598   28.190204   11.761329
     32          6           0       12.212373   27.557793   11.767663
     33          1           0       12.189257   32.666163   15.546727
     34          1           0       10.394676   31.622195   13.468103
     35          1           0        9.254896   30.499784   15.341532
     36          1           0       10.351113   31.278001   16.491247
     37          1           0       12.766337   29.914197   16.857561
     38          1           0       14.128136   28.322995   15.478273
     39          1           0        9.514397   29.360305   12.871740
     40          1           0       14.015277   27.123573   12.884447
     41          1           0       10.274532   28.063172   10.919608
     42          1           0       12.516674   26.965275   10.909912
     43          7           0        8.535147   33.367778   13.733323
     44          6           0        7.838218   32.270555   13.067657
     45          6           0        7.003393   32.921201   11.948043
     46          8           0        6.579865   34.056530   12.108622
     47          6           0        6.985077   31.435238   14.110177
     48          6           0        5.503855   31.794511   14.163414
     49          8           0        7.237524   30.048117   13.950205
     50          1           0        6.537677   29.640305   13.412980
     51          1           0        7.962103   34.200815   13.850809
     52          1           0        8.563984   31.572296   12.645682
     53          1           0        7.419388   31.694101   15.081598
     54          1           0        4.986862   31.554188   13.228542
     55          1           0        5.374793   32.866290   14.339805
     56          1           0        5.021367   31.240369   14.973168
     57          7           0        6.657274   32.206449   10.815755
     58          6           0        7.330348   31.054164   10.197325
     59          6           0        7.057374   29.744775   10.940651
     60          8           0        7.836772   28.826364   11.005006
     61          6           0        8.819554   31.213960    9.833741
     62          6           0        9.207418   30.566417    8.490764
     63          6           0        8.540189   31.181373    7.237188
     64          7           0        8.671181   32.633452    7.141101
     65          6           0        7.847169   33.463414    7.891730
     66          7           0        6.586083   33.292549    8.126003
     67          7           0        8.498147   34.533716    8.497091
     68          8           0        5.821211   29.662719   11.486870
     69          1           0        5.377214   30.525608   11.350783
     70          1           0        6.292580   32.839171   10.086777
     71          1           0        6.772973   30.935670    9.261973
     72          1           0        9.427340   30.749737   10.618090
     73          1           0        9.046242   32.283176    9.809110
     74          1           0       10.297863   30.648937    8.381552
     75          1           0        8.981621   29.493333    8.524272
     76          1           0        8.984036   30.736290    6.340950
     77          1           0        7.478731   30.922945    7.195461
     78          1           0        9.635231   32.939838    7.078074
     79          1           0        6.210500   32.534886    7.556964
     80          1           0        9.367783   34.831781    8.071384
     81          1           0        7.871893   35.298526    8.722266
 ---------------------------------------------------------------------

 SCF Done:  E(RB3LYP) =  -2054.01764475     A.U. after    1 cycles

 Alpha  occ. eigenvalues --  -19.35948 -19.30580 -19.29442 -19.24953 -19.24940
 Alpha  occ. eigenvalues --  -19.24394 -19.22495 -19.21448 -14.58717 -14.48963
 Alpha  occ. eigenvalues --  -14.48178 -14.46258 -14.45817 -14.44607 -14.44277
 Alpha  occ. eigenvalues --  -14.38253 -10.47621 -10.43028 -10.42534 -10.40036
 Alpha  occ. eigenvalues --  -10.39839 -10.38905 -10.38293 -10.35500 -10.35377
 Alpha  occ. eigenvalues --  -10.34612 -10.34590 -10.34491 -10.34374 -10.33495
 Alpha  occ. eigenvalues --  -10.32805 -10.32779 -10.30725 -10.30707 -10.30405
 Alpha  occ. eigenvalues --  -10.30235 -10.30057 -10.29920 -10.29869 -10.29578
 Alpha  occ. eigenvalues --  -10.29027 -10.27336  -1.26075  -1.21322  -1.17349
 Alpha  occ. eigenvalues --   -1.17037  -1.14708  -1.13519  -1.13326  -1.13226
 Alpha  occ. eigenvalues --   -1.11909  -1.08985  -1.07546  -1.05035  -1.02891
 Alpha  occ. eigenvalues --   -1.02448  -0.98646  -0.95702  -0.95268  -0.93931
 Alpha  occ. eigenvalues --   -0.91734  -0.90673  -0.88406  -0.87352  -0.86592
 Alpha  occ. eigenvalues --   -0.84903  -0.84247  -0.83197  -0.81401  -0.80482
 Alpha  occ. eigenvalues --   -0.78867  -0.77712  -0.75579  -0.74651  -0.73362
 Alpha  occ. eigenvalues --   -0.73230  -0.72554  -0.71802  -0.71179  -0.70775
 Alpha  occ. eigenvalues --   -0.70389  -0.69466  -0.68267  -0.67771  -0.67204
 Alpha  occ. eigenvalues --   -0.65625  -0.65045  -0.64815  -0.63947  -0.63250
 Alpha  occ. eigenvalues --   -0.63006  -0.62236  -0.61701  -0.61052  -0.60714
 Alpha  occ. eigenvalues --   -0.60380  -0.60279  -0.59297  -0.58764  -0.58665
 Alpha  occ. eigenvalues --   -0.58002  -0.57863  -0.57032  -0.56727  -0.56392
 Alpha  occ. eigenvalues --   -0.56102  -0.55224  -0.55085  -0.55030  -0.54915
 Alpha  occ. eigenvalues --   -0.54455  -0.54401  -0.54007  -0.53616  -0.53358
 Alpha  occ. eigenvalues --   -0.53001  -0.52622  -0.52334  -0.52066  -0.51456
 Alpha  occ. eigenvalues --   -0.51351  -0.50804  -0.50182  -0.49985  -0.49763
 Alpha  occ. eigenvalues --   -0.49558  -0.49073  -0.48491  -0.48177  -0.48086
 Alpha  occ. eigenvalues --   -0.47585  -0.47236  -0.46700  -0.46486  -0.46142
 Alpha  occ. eigenvalues --   -0.45691  -0.45620  -0.44975  -0.44666  -0.44285
 Alpha  occ. eigenvalues --   -0.43220  -0.42831  -0.41793  -0.39583  -0.39374
 Alpha  occ. eigenvalues --   -0.39084  -0.38627  -0.37591  -0.37355  -0.36258
 Alpha  occ. eigenvalues --   -0.36081  -0.35449  -0.34999  -0.34094  -0.33948
 Alpha  occ. eigenvalues --   -0.32196  -0.31565
 Alpha virt. eigenvalues --   -0.14773  -0.13720  -0.12875  -0.11159  -0.09787
 Alpha virt. eigenvalues --   -0.09526  -0.08914  -0.08817  -0.06032  -0.05539
 Alpha virt. eigenvalues --   -0.05364  -0.04457  -0.03520  -0.03381  -0.02499

 Mulliken charges:
               1
     1  N   -0.771164
     2  C   -0.089291
     3  C    0.588578
     4  O   -0.488345
     5  C   -0.335186
     6  C   -0.386174
     7  C    0.625754
     8  O   -0.453184
     9  O   -0.605694
    10  H    0.440487
    11  H    0.409317
    12  H    0.225362
    13  H    0.178469
    14  H    0.230220
    15  H    0.215552
    16  H    0.226894
    17  H    0.421573
    18  H    0.415917
    19  N   -0.553288
    20  C   -0.090874
    21  C    0.605255
    22  O   -0.487042
    23  C   -0.388313
    24  C    0.075104
    25  C    0.025781
    26  C    0.037887
    27  C    0.314039
    28  C   -0.284773
    29  N   -0.673912
    30  C   -0.188626
    31  C   -0.185339
    32  C   -0.168617
    33  H    0.359569
    34  H    0.133384
    35  H    0.215286
    36  H    0.179320
    37  H    0.182287
    38  H    0.351098
    39  H    0.196821
    40  H    0.159118
    41  H    0.178017
    42  H    0.155174
    43  N   -0.610818
    44  C   -0.090514
    45  C    0.605682
    46  O   -0.488084
    47  C    0.129569
    48  C   -0.490979
    49  O   -0.641774
    50  H    0.436113
    51  H    0.364414
    52  H    0.155609
    53  H    0.163105
    54  H    0.138926
    55  H    0.189293
    56  H    0.187167
    57  N   -0.678230
    58  C   -0.079534
    59  C    0.627022
    60  O   -0.447345
    61  C   -0.305953
    62  C   -0.279844
    63  C   -0.168029
    64  N   -0.587891
    65  C    0.590224
    66  N   -0.682757
    67  N   -0.756939
    68  O   -0.591804
    69  H    0.441610
    70  H    0.394607
    71  H    0.190577
    72  H    0.147336
    73  H    0.176781
    74  H    0.106728
    75  H    0.176724
    76  H    0.176238
    77  H    0.161696
    78  H    0.351342
    79  H    0.293315
    80  H    0.341862
    81  H    0.358114
 Sum of Mulliken charges =   1.00000

 Dipole moment (field-independent basis, Debye):
    X=             56.4095    Y=            148.1522    Z=             52.5268  Tot=            167.0035
 Quadrupole moment (field-independent basis, Debye-Ang):
   XX=            453.6857   YY=           4327.5125   ZZ=            368.5136
   XY=           1733.6971   XZ=            624.6056   YZ=           1604.1943

 Normal termination of Gaussian 16 at Fri May 27 05:13:56 2022.
