 Gaussian 16, Revision C.01,
 Gaussian 16:  ES64L-G16RevC.01  3-Jul-2019

 ----------------------------------------------------------------------
 # B3LYP/6-31G* empiricaldispersion=gd3 guess=read geom=check nosymm in
 tegral(ultrafinegrid)
 ----------------------------------------------------------------------

 ------------------------------------------------------
 Candidate Structure: Conf:472 Charge calc in gas phase
 ------------------------------------------------------
 Structure from the checkpoint file:  "conf-472.chk"
 Charge =  1 Multiplicity = 1

                          Input orientation:
 ---------------------------------------------------------------------
 Center     Atomic      Atomic             Coordinates (Angstroms)
 Number     Number       Type             X           Y           Z
 ---------------------------------------------------------------------
      1          7           0       -6.496569  -87.137857  129.669025
      2          6           0       -5.317039  -87.324098  128.733392
      3          6           0       -4.409574  -88.464821  129.221687
      4          8           0       -4.837968  -89.609490  129.292478
      5          6           0       -5.833744  -87.626567  127.317049
      6          6           0       -6.928314  -86.658085  126.794950
      7          6           0       -6.497169  -85.236629  127.105323
      8          8           0       -6.574044  -84.803114  128.266616
      9          8           0       -5.933626  -84.617105  126.109056
     10          1           0       -5.267301  -83.841190  126.416949
     11          1           0       -6.927926  -86.224081  129.366334
     12          1           0       -4.805549  -86.361233  128.763450
     13          1           0       -6.198397  -88.658934  127.295062
     14          1           0       -4.961771  -87.583025  126.655255
     15          1           0       -7.890245  -86.857191  127.279647
     16          1           0       -7.056895  -86.806847  125.721363
     17          1           0       -7.152878  -87.923615  129.599497
     18          1           0       -6.203403  -87.064215  130.648796
     19          7           0       -3.147141  -88.047561  129.447191
     20          6           0       -1.966536  -88.918800  129.608823
     21          6           0       -0.781813  -87.960200  129.327818
     22          8           0        0.066624  -87.678334  130.153019
     23          6           0       -1.875315  -89.598841  130.985529
     24          6           0       -0.909884  -90.764151  130.967357
     25          6           0       -1.346612  -92.025722  130.534224
     26          6           0        0.431258  -90.615682  131.336153
     27          6           0       -0.478853  -93.110133  130.472966
     28          6           0        1.311883  -91.695416  131.284061
     29          6           0        0.859664  -92.947433  130.851916
     30          8           0        1.664999  -94.044770  130.775762
     31          1           0       -2.968010  -87.049672  129.495565
     32          1           0       -2.027571  -89.692740  128.833769
     33          1           0       -1.581631  -88.850359  131.727608
     34          1           0       -2.881775  -89.951936  131.233741
     35          1           0       -2.387867  -92.161913  130.247581
     36          1           0        0.792962  -89.643160  131.654243
     37          1           0       -0.815562  -94.088739  130.146698
     38          1           0        2.351035  -91.565050  131.579760
     39          1           0        2.556664  -93.815504  131.081091
     40          7           0       -0.861347  -87.333795  128.101441
     41          6           0       -0.265697  -86.027732  127.893929
     42          6           0       -0.921628  -84.906635  128.718591
     43          8           0       -0.582434  -83.750529  128.671353
     44          6           0       -0.211638  -85.629911  126.401661
     45          6           0       -1.522201  -85.802643  125.605958
     46          6           0       -2.788613  -85.128415  126.166377
     47          6           0       -2.779513  -83.596011  126.100524
     48          7           0       -3.989711  -83.035692  126.768170
     49          8           0       -1.948562  -85.310962  129.537858
     50          1           0       -2.168429  -84.534231  130.087655
     51          1           0       -1.647920  -87.572927  127.514186
     52          1           0        0.759128  -86.064072  128.278630
     53          1           0        0.135316  -84.593401  126.360841
     54          1           0        0.560196  -86.241048  125.923106
     55          1           0       -1.730094  -86.874642  125.483800
     56          1           0       -1.343621  -85.435614  124.587570
     57          1           0       -3.656440  -85.489083  125.604074
     58          1           0       -2.952783  -85.440271  127.208320
     59          1           0       -1.868481  -83.187515  126.551029
     60          1           0       -2.806191  -83.278679  125.053337
     61          1           0       -4.086104  -82.043922  126.548587
     62          1           0       -3.880305  -83.086800  127.781862
 ---------------------------------------------------------------------

 SCF Done:  E(RB3LYP) =  -1526.29021971     A.U. after    1 cycles

 Alpha  occ. eigenvalues --  -19.33362 -19.29178 -19.26808 -19.26712 -19.25458
 Alpha  occ. eigenvalues --  -19.23654 -19.23093 -14.60882 -14.49599 -14.47739
 Alpha  occ. eigenvalues --  -14.47367 -10.44685 -10.44633 -10.42976 -10.40826
 Alpha  occ. eigenvalues --  -10.40065 -10.35790 -10.35144 -10.34652 -10.33660
 Alpha  occ. eigenvalues --  -10.33550 -10.31047 -10.30960 -10.30585 -10.30455
 Alpha  occ. eigenvalues --  -10.27664 -10.25684 -10.25452 -10.25214 -10.24993
 Alpha  occ. eigenvalues --  -10.24578  -1.23489  -1.21563  -1.17884  -1.15273
 Alpha  occ. eigenvalues --   -1.15015  -1.14455  -1.12709  -1.11766  -1.06492
 Alpha  occ. eigenvalues --   -1.04023  -1.02918  -0.95514  -0.92329  -0.91931
 Alpha  occ. eigenvalues --   -0.89611  -0.87435  -0.86265  -0.82170  -0.81034
 Alpha  occ. eigenvalues --   -0.80883  -0.78465  -0.76566  -0.75711  -0.75068
 Alpha  occ. eigenvalues --   -0.73764  -0.72630  -0.71729  -0.71284  -0.70116
 Alpha  occ. eigenvalues --   -0.69247  -0.68279  -0.66595  -0.65356  -0.64867
 Alpha  occ. eigenvalues --   -0.63648  -0.63231  -0.62097  -0.61615  -0.61058
 Alpha  occ. eigenvalues --   -0.60496  -0.60291  -0.59864  -0.58717  -0.58443
 Alpha  occ. eigenvalues --   -0.58051  -0.56776  -0.56729  -0.56026  -0.55794
 Alpha  occ. eigenvalues --   -0.54823  -0.54282  -0.53858  -0.53186  -0.52820
 Alpha  occ. eigenvalues --   -0.52183  -0.52146  -0.51754  -0.50925  -0.50757
 Alpha  occ. eigenvalues --   -0.50549  -0.49861  -0.49420  -0.48609  -0.48216
 Alpha  occ. eigenvalues --   -0.48153  -0.47969  -0.46593  -0.46314  -0.45444
 Alpha  occ. eigenvalues --   -0.45104  -0.44777  -0.44463  -0.43575  -0.43129
 Alpha  occ. eigenvalues --   -0.42481  -0.41418  -0.41005  -0.39782  -0.39731
 Alpha  occ. eigenvalues --   -0.39491  -0.39197  -0.38468  -0.36683  -0.36057
 Alpha  occ. eigenvalues --   -0.31337  -0.27964
 Alpha virt. eigenvalues --   -0.13750  -0.12185  -0.11960  -0.10252  -0.09910
 Alpha virt. eigenvalues --   -0.08617  -0.06563  -0.06418  -0.05673  -0.05220
 Alpha virt. eigenvalues --   -0.03627  -0.03025  -0.01504  -0.01098  -0.00804

 Mulliken charges:
               1
     1  N   -0.743170
     2  C   -0.141556
     3  C    0.619701
     4  O   -0.500952
     5  C   -0.305571
     6  C   -0.368646
     7  C    0.610155
     8  O   -0.535402
     9  O   -0.565612
    10  H    0.474164
    11  H    0.433955
    12  H    0.201641
    13  H    0.213538
    14  H    0.194558
    15  H    0.171250
    16  H    0.215224
    17  H    0.418110
    18  H    0.414943
    19  N   -0.662168
    20  C   -0.038687
    21  C    0.590073
    22  O   -0.475812
    23  C   -0.352436
    24  C    0.136932
    25  C   -0.194184
    26  C   -0.181555
    27  C   -0.156355
    28  C   -0.194969
    29  C    0.354793
    30  O   -0.633820
    31  H    0.389262
    32  H    0.194087
    33  H    0.166088
    34  H    0.166438
    35  H    0.133508
    36  H    0.156361
    37  H    0.150814
    38  H    0.131263
    39  H    0.413759
    40  N   -0.606140
    41  C   -0.057446
    42  C    0.618482
    43  O   -0.441413
    44  C   -0.295915
    45  C   -0.296728
    46  C   -0.306806
    47  C   -0.156199
    48  N   -0.793561
    49  O   -0.606254
    50  H    0.425564
    51  H    0.334253
    52  H    0.237054
    53  H    0.188735
    54  H    0.183943
    55  H    0.146945
    56  H    0.174709
    57  H    0.173756
    58  H    0.111734
    59  H    0.190386
    60  H    0.181439
    61  H    0.358120
    62  H    0.335622
 Sum of Mulliken charges =   1.00000

 Dipole moment (field-independent basis, Debye):
    X=            -21.5998    Y=           -413.3363    Z=            616.1337  Tot=            742.2494
 Quadrupole moment (field-independent basis, Debye-Ang):
   XX=            -39.9685   YY=          35400.3203   ZZ=          78876.5459
   XY=           1857.1341   XZ=          -2780.1397   YZ=         -53029.6679

 Normal termination of Gaussian 16 at Tue May 24 19:13:22 2022.
