 Gaussian 16, Revision C.01,
 Gaussian 16:  ES64L-G16RevC.01  3-Jul-2019

 ----------------------------------------------------------------------
 # B3LYP/6-31G* empiricaldispersion=gd3 guess=read geom=check nosymm in
 tegral(ultrafinegrid)
 ----------------------------------------------------------------------

 ------------------------------------------------------
 Candidate Structure: Conf:205 Charge calc in gas phase
 ------------------------------------------------------
 Structure from the checkpoint file:  "conf-205.chk"
 Charge =  1 Multiplicity = 1

                          Input orientation:
 ---------------------------------------------------------------------
 Center     Atomic      Atomic             Coordinates (Angstroms)
 Number     Number       Type             X           Y           Z
 ---------------------------------------------------------------------
      1          7           0       -5.543384  -86.311949  130.539383
      2          6           0       -5.305582  -87.447741  129.549043
      3          6           0       -4.049977  -88.250542  129.950702
      4          8           0       -4.119142  -89.333835  130.506950
      5          6           0       -6.570524  -88.291118  129.403558
      6          6           0       -7.854098  -87.459649  129.111049
      7          6           0       -7.503649  -86.373754  128.110307
      8          8           0       -6.916370  -85.341019  128.476583
      9          8           0       -7.716061  -86.689263  126.863878
     10          1           0       -7.073172  -86.143728  126.233628
     11          1           0       -6.189604  -85.645188  130.023825
     12          1           0       -5.094139  -86.920224  128.616641
     13          1           0       -6.701583  -88.908025  130.298401
     14          1           0       -6.385120  -88.985932  128.578460
     15          1           0       -8.233959  -86.990377  130.024545
     16          1           0       -8.631221  -88.119175  128.720952
     17          1           0       -5.971476  -86.647570  131.408883
     18          1           0       -4.668166  -85.835372  130.782725
     19          7           0       -2.912776  -87.596464  129.607107
     20          6           0       -1.560934  -88.190539  129.697857
     21          6           0       -0.754908  -87.299975  128.732226
     22          8           0       -0.057949  -86.372113  129.113712
     23          6           0       -0.990836  -88.197743  131.122805
     24          6           0        0.269606  -89.031051  131.199710
     25          6           0        1.534251  -88.459606  131.018860
     26          6           0        0.187410  -90.416516  131.407425
     27          6           0        2.686418  -89.244003  131.052916
     28          6           0        1.327466  -91.211435  131.440534
     29          6           0        2.586887  -90.624076  131.264392
     30          8           0        3.669350  -91.450744  131.309727
     31          1           0       -2.982300  -86.753632  129.043096
     32          1           0       -1.626479  -89.222491  129.331605
     33          1           0       -0.801357  -87.162546  131.422524
     34          1           0       -1.762429  -88.612330  131.780158
     35          1           0        1.617524  -87.391813  130.840328
     36          1           0       -0.786569  -90.879157  131.555461
     37          1           0        3.663014  -88.783364  130.917877
     38          1           0        1.268141  -92.281472  131.610663
     39          1           0        4.481365  -90.931083  131.202569
     40          7           0       -1.062263  -87.478458  127.411433
     41          6           0       -0.766517  -86.425218  126.454091
     42          6           0       -1.368977  -85.077543  126.858963
     43          8           0       -0.956232  -84.014196  126.483384
     44          6           0       -1.224140  -86.777902  125.017048
     45          6           0       -2.716219  -86.577814  124.690315
     46          6           0       -3.697545  -87.454148  125.478719
     47          6           0       -5.169327  -87.225351  125.116513
     48          7           0       -5.689864  -85.873075  125.468092
     49          8           0       -2.516935  -85.170021  127.630002
     50          1           0       -2.756833  -84.240019  127.810303
     51          1           0       -1.643284  -88.254816  127.130448
     52          1           0        0.312906  -86.250052  126.445551
     53          1           0       -0.642591  -86.145182  124.339900
     54          1           0       -0.921174  -87.813004  124.813691
     55          1           0       -2.849696  -86.779272  123.619708
     56          1           0       -2.972338  -85.519004  124.828924
     57          1           0       -3.467431  -88.515116  125.306808
     58          1           0       -3.578650  -87.276932  126.556347
     59          1           0       -5.333196  -87.385908  124.046327
     60          1           0       -5.788546  -87.961583  125.642196
     61          1           0       -5.697226  -85.251580  124.662068
     62          1           0       -5.099365  -85.426400  126.170590
 ---------------------------------------------------------------------

 SCF Done:  E(RB3LYP) =  -1526.28283017     A.U. after    1 cycles

 Alpha  occ. eigenvalues --  -19.32658 -19.30149 -19.27658 -19.25903 -19.25795
 Alpha  occ. eigenvalues --  -19.24005 -19.23339 -14.61011 -14.49968 -14.47916
 Alpha  occ. eigenvalues --  -14.47576 -10.45476 -10.43898 -10.43272 -10.41146
 Alpha  occ. eigenvalues --  -10.40255 -10.35650 -10.35052 -10.34929 -10.34185
 Alpha  occ. eigenvalues --  -10.33904 -10.31442 -10.31296 -10.31133 -10.30603
 Alpha  occ. eigenvalues --  -10.27980 -10.26110 -10.25849 -10.25675 -10.25407
 Alpha  occ. eigenvalues --  -10.24955  -1.22651  -1.22537  -1.18106  -1.15636
 Alpha  occ. eigenvalues --   -1.15416  -1.13727  -1.13434  -1.12131  -1.06458
 Alpha  occ. eigenvalues --   -1.04321  -1.02957  -0.95727  -0.92698  -0.92268
 Alpha  occ. eigenvalues --   -0.89957  -0.87719  -0.86668  -0.82570  -0.81320
 Alpha  occ. eigenvalues --   -0.81196  -0.78634  -0.76513  -0.76084  -0.75145
 Alpha  occ. eigenvalues --   -0.74031  -0.73057  -0.71584  -0.71278  -0.70610
 Alpha  occ. eigenvalues --   -0.69605  -0.68605  -0.66911  -0.65693  -0.65478
 Alpha  occ. eigenvalues --   -0.64155  -0.63348  -0.62348  -0.61144  -0.60976
 Alpha  occ. eigenvalues --   -0.60900  -0.60462  -0.59561  -0.59234  -0.58622
 Alpha  occ. eigenvalues --   -0.57586  -0.57278  -0.57224  -0.56144  -0.55568
 Alpha  occ. eigenvalues --   -0.55071  -0.54559  -0.54170  -0.53598  -0.53170
 Alpha  occ. eigenvalues --   -0.52736  -0.52570  -0.51829  -0.50833  -0.50760
 Alpha  occ. eigenvalues --   -0.50493  -0.50022  -0.49581  -0.49112  -0.48938
 Alpha  occ. eigenvalues --   -0.48661  -0.48375  -0.46832  -0.46668  -0.45812
 Alpha  occ. eigenvalues --   -0.45534  -0.45234  -0.44165  -0.44066  -0.43887
 Alpha  occ. eigenvalues --   -0.42802  -0.41705  -0.40451  -0.40152  -0.39868
 Alpha  occ. eigenvalues --   -0.39601  -0.39328  -0.38764  -0.36817  -0.36683
 Alpha  occ. eigenvalues --   -0.31755  -0.28376
 Alpha virt. eigenvalues --   -0.14304  -0.13004  -0.11292  -0.10987  -0.09794
 Alpha virt. eigenvalues --   -0.09011  -0.06811  -0.06248  -0.05756  -0.05196
 Alpha virt. eigenvalues --   -0.03902  -0.03493  -0.02037  -0.01020  -0.00568

 Mulliken charges:
               1
     1  N   -0.751005
     2  C   -0.156865
     3  C    0.630223
     4  O   -0.478976
     5  C   -0.296575
     6  C   -0.369226
     7  C    0.606721
     8  O   -0.537856
     9  O   -0.553591
    10  H    0.472988
    11  H    0.437390
    12  H    0.208536
    13  H    0.212163
    14  H    0.208120
    15  H    0.174175
    16  H    0.219949
    17  H    0.415311
    18  H    0.408823
    19  N   -0.669916
    20  C   -0.018671
    21  C    0.581985
    22  O   -0.488313
    23  C   -0.355040
    24  C    0.136232
    25  C   -0.187721
    26  C   -0.193756
    27  C   -0.195082
    28  C   -0.156383
    29  C    0.355055
    30  O   -0.632733
    31  H    0.375395
    32  H    0.183609
    33  H    0.165957
    34  H    0.166244
    35  H    0.157298
    36  H    0.135115
    37  H    0.132724
    38  H    0.152881
    39  H    0.414338
    40  N   -0.615290
    41  C   -0.010425
    42  C    0.610728
    43  O   -0.425468
    44  C   -0.319836
    45  C   -0.275762
    46  C   -0.304276
    47  C   -0.140379
    48  N   -0.797656
    49  O   -0.619143
    50  H    0.420180
    51  H    0.342215
    52  H    0.224201
    53  H    0.196546
    54  H    0.171629
    55  H    0.168320
    56  H    0.146315
    57  H    0.159531
    58  H    0.126200
    59  H    0.182447
    60  H    0.161052
    61  H    0.355714
    62  H    0.333631
 Sum of Mulliken charges =   1.00000

 Dipole moment (field-independent basis, Debye):
    X=            -22.5086    Y=           -416.9538    Z=            616.0963  Tot=            744.2659
 Quadrupole moment (field-independent basis, Debye-Ang):
   XX=            -36.3482   YY=          36009.7778   ZZ=          78884.4403
   XY=           1944.6985   XZ=          -2899.1695   YZ=         -53473.1388

 Normal termination of Gaussian 16 at Tue May 24 19:13:30 2022.
