 Gaussian 16, Revision C.01,
 Gaussian 16:  ES64L-G16RevC.01  3-Jul-2019

 ----------------------------------------------------------------------
 # B3LYP/6-31G* empiricaldispersion=gd3 guess=read geom=check nosymm in
 tegral(ultrafinegrid)
 ----------------------------------------------------------------------

 ------------------------------------------------------
 Candidate Structure: Conf:123 Charge calc in gas phase
 ------------------------------------------------------
 Structure from the checkpoint file:  "conf-123.chk"
 Charge =  1 Multiplicity = 1

                          Input orientation:
 ---------------------------------------------------------------------
 Center     Atomic      Atomic             Coordinates (Angstroms)
 Number     Number       Type             X           Y           Z
 ---------------------------------------------------------------------
      1          7           0       -4.386650  -89.331639  126.995851
      2          6           0       -3.572092  -90.109401  127.993136
      3          6           0       -2.314398  -89.251835  128.270085
      4          8           0       -1.684129  -88.842674  127.294610
      5          6           0       -4.414129  -90.510663  129.215545
      6          6           0       -5.799760  -91.150906  128.936924
      7          6           0       -5.796263  -92.143698  127.793195
      8          8           0       -5.632299  -91.811718  126.626711
      9          8           0       -5.976824  -93.404692  128.179918
     10          1           0       -5.972275  -93.977803  127.387056
     11          1           0       -5.150321  -89.949789  126.673960
     12          1           0       -3.234522  -91.000505  127.457484
     13          1           0       -4.598407  -89.627490  129.838690
     14          1           0       -3.810263  -91.208287  129.806252
     15          1           0       -6.520209  -90.372119  128.661878
     16          1           0       -6.163979  -91.623733  129.851058
     17          1           0       -4.745292  -88.467858  127.432300
     18          1           0       -3.855659  -89.022014  126.095894
     19          7           0       -2.000071  -88.968897  129.553192
     20          6           0       -1.085478  -87.860277  129.915952
     21          6           0       -1.944188  -86.592518  129.683511
     22          8           0       -2.691845  -86.141321  130.541267
     23          6           0       -0.608126  -87.987627  131.364644
     24          6           0        0.446271  -86.949242  131.684449
     25          6           0        0.094465  -85.688255  132.179895
     26          6           0        1.802319  -87.216758  131.444973
     27          6           0        1.066588  -84.722299  132.435257
     28          6           0        2.782350  -86.262709  131.693535
     29          6           0        2.415542  -85.006493  132.192992
     30          8           0        3.417803  -84.112069  132.420098
     31          1           0       -2.642106  -89.236835  130.286867
     32          1           0       -0.235432  -87.899964  129.231111
     33          1           0       -1.474742  -87.869757  132.025864
     34          1           0       -0.208830  -88.998767  131.505871
     35          1           0       -0.951241  -85.456066  132.358182
     36          1           0        2.099528  -88.193375  131.067683
     37          1           0        0.777012  -83.748967  132.826122
     38          1           0        3.832918  -86.470262  131.518761
     39          1           0        3.048213  -83.293722  132.787049
     40          7           0       -1.929495  -86.169249  128.389977
     41          6           0       -3.014645  -85.415204  127.769067
     42          6           0       -4.361015  -85.616892  128.458892
     43          8           0       -5.123644  -84.739446  128.751976
     44          6           0       -3.076599  -85.886082  126.295093
     45          6           0       -4.326071  -85.521471  125.489619
     46          6           0       -4.279105  -86.083252  124.055716
     47          6           0       -4.564933  -87.582473  123.880341
     48          7           0       -3.552457  -88.496924  124.490499
     49          8           0       -4.723204  -86.953079  128.612304
     50          1           0       -5.559754  -86.909500  129.115684
     51          1           0       -1.369548  -86.722986  127.752834
     52          1           0       -2.837164  -84.337646  127.830112
     53          1           0       -2.188279  -85.485384  125.789407
     54          1           0       -2.959662  -86.970431  126.310250
     55          1           0       -4.434037  -84.431499  125.446139
     56          1           0       -5.229077  -85.895718  125.992069
     57          1           0       -5.030496  -85.559933  123.452835
     58          1           0       -3.308973  -85.844948  123.595636
     59          1           0       -5.537929  -87.825123  124.328355
     60          1           0       -4.654323  -87.783947  122.805514
     61          1           0       -2.614025  -88.111585  124.383297
     62          1           0       -3.542021  -89.372879  123.965779
 ---------------------------------------------------------------------

 SCF Done:  E(RB3LYP) =  -1526.30154861     A.U. after    1 cycles

 Alpha  occ. eigenvalues --  -19.33648 -19.32416 -19.28488 -19.25660 -19.25492
 Alpha  occ. eigenvalues --  -19.24045 -19.22394 -14.54891 -14.49904 -14.46761
 Alpha  occ. eigenvalues --  -14.46670 -10.46652 -10.43727 -10.43139 -10.39573
 Alpha  occ. eigenvalues --  -10.39324 -10.35505 -10.35274 -10.34794 -10.34530
 Alpha  occ. eigenvalues --  -10.33579 -10.31507 -10.30666 -10.30033 -10.29882
 Alpha  occ. eigenvalues --  -10.28500 -10.26318 -10.26006 -10.25758 -10.25464
 Alpha  occ. eigenvalues --  -10.25028  -1.24834  -1.22244  -1.17764  -1.15846
 Alpha  occ. eigenvalues --   -1.14317  -1.13515  -1.12181  -1.10524  -1.05972
 Alpha  occ. eigenvalues --   -1.03789  -1.02005  -0.95159  -0.92627  -0.91896
 Alpha  occ. eigenvalues --   -0.89412  -0.87366  -0.86433  -0.81808  -0.81399
 Alpha  occ. eigenvalues --   -0.80665  -0.79661  -0.76274  -0.74744  -0.73929
 Alpha  occ. eigenvalues --   -0.73184  -0.71652  -0.71068  -0.70090  -0.68971
 Alpha  occ. eigenvalues --   -0.68801  -0.67902  -0.65713  -0.64590  -0.64430
 Alpha  occ. eigenvalues --   -0.63201  -0.62339  -0.62058  -0.61154  -0.60923
 Alpha  occ. eigenvalues --   -0.60736  -0.60453  -0.59201  -0.58914  -0.58646
 Alpha  occ. eigenvalues --   -0.58384  -0.57587  -0.56673  -0.55939  -0.55450
 Alpha  occ. eigenvalues --   -0.54634  -0.54248  -0.53970  -0.53756  -0.53233
 Alpha  occ. eigenvalues --   -0.52002  -0.51853  -0.51540  -0.51292  -0.50961
 Alpha  occ. eigenvalues --   -0.50548  -0.49888  -0.49795  -0.48896  -0.48605
 Alpha  occ. eigenvalues --   -0.48248  -0.47191  -0.46737  -0.46594  -0.45720
 Alpha  occ. eigenvalues --   -0.45557  -0.45258  -0.44250  -0.44193  -0.44026
 Alpha  occ. eigenvalues --   -0.42828  -0.42240  -0.40454  -0.40259  -0.39699
 Alpha  occ. eigenvalues --   -0.39459  -0.39344  -0.38691  -0.36433  -0.35322
 Alpha  occ. eigenvalues --   -0.31826  -0.28466
 Alpha virt. eigenvalues --   -0.13876  -0.13347  -0.11030  -0.08275  -0.07546
 Alpha virt. eigenvalues --   -0.06740  -0.05858  -0.05214  -0.04603  -0.03649
 Alpha virt. eigenvalues --   -0.02223  -0.01708  -0.01090  -0.00618  -0.00099

 Mulliken charges:
               1
     1  N   -0.837028
     2  C   -0.087002
     3  C    0.645911
     4  O   -0.532003
     5  C   -0.331330
     6  C   -0.373211
     7  C    0.604640
     8  O   -0.483729
     9  O   -0.524716
    10  H    0.438273
    11  H    0.406257
    12  H    0.222467
    13  H    0.179299
    14  H    0.204617
    15  H    0.186030
    16  H    0.219820
    17  H    0.411728
    18  H    0.473590
    19  N   -0.603009
    20  C   -0.068490
    21  C    0.640685
    22  O   -0.519088
    23  C   -0.378937
    24  C    0.141119
    25  C   -0.187992
    26  C   -0.189052
    27  C   -0.194827
    28  C   -0.156087
    29  C    0.355828
    30  O   -0.632227
    31  H    0.353651
    32  H    0.193094
    33  H    0.169725
    34  H    0.162365
    35  H    0.160046
    36  H    0.127829
    37  H    0.133981
    38  H    0.153927
    39  H    0.414720
    40  N   -0.622198
    41  C    0.022723
    42  C    0.608002
    43  O   -0.418653
    44  C   -0.352807
    45  C   -0.272381
    46  C   -0.288047
    47  C   -0.138443
    48  N   -0.791690
    49  O   -0.633766
    50  H    0.424202
    51  H    0.365551
    52  H    0.206140
    53  H    0.175189
    54  H    0.164409
    55  H    0.177877
    56  H    0.136799
    57  H    0.176525
    58  H    0.154169
    59  H    0.145951
    60  H    0.172381
    61  H    0.345578
    62  H    0.341615
 Sum of Mulliken charges =   1.00000

 Dipole moment (field-independent basis, Debye):
    X=            -19.3984    Y=           -429.2527    Z=            611.0021  Tot=            746.9656
 Quadrupole moment (field-independent basis, Debye-Ang):
   XX=            -85.8913   YY=          38219.4979   ZZ=          77577.9371
   XY=           1755.4811   XZ=          -2460.4342   YZ=         -54609.6814

 Normal termination of Gaussian 16 at Tue May 24 19:13:23 2022.
