 Gaussian 16, Revision C.01,
 Gaussian 16:  ES64L-G16RevC.01  3-Jul-2019

 ----------------------------------------------------------------------
 # B3LYP/6-31G* empiricaldispersion=gd3 guess=read geom=check nosymm in
 tegral(ultrafinegrid)
 ----------------------------------------------------------------------

 ------------------------------------------------------
 Candidate Structure: Conf:997 Charge calc in gas phase
 ------------------------------------------------------
 Structure from the checkpoint file:  "conf-997.chk"
 Charge =  1 Multiplicity = 1

                          Input orientation:
 ---------------------------------------------------------------------
 Center     Atomic      Atomic             Coordinates (Angstroms)
 Number     Number       Type             X           Y           Z
 ---------------------------------------------------------------------
      1          7           0       -3.119932  -87.189157  125.615400
      2          6           0       -2.336392  -88.375479  126.136961
      3          6           0       -2.487277  -88.692114  127.631184
      4          8           0       -1.590123  -89.358057  128.134110
      5          6           0       -2.585949  -89.656419  125.320117
      6          6           0       -2.485139  -89.518865  123.776690
      7          6           0       -1.378971  -88.570014  123.334620
      8          8           0       -1.518226  -87.360001  123.407731
      9          8           0       -0.218092  -89.070135  122.903558
     10          1           0       -0.239089  -90.040668  122.851969
     11          1           0       -2.769133  -87.029809  124.640328
     12          1           0       -1.284615  -88.049835  126.017118
     13          1           0       -3.569676  -90.079705  125.557044
     14          1           0       -1.843239  -90.371200  125.685467
     15          1           0       -3.414122  -89.104515  123.371661
     16          1           0       -2.374416  -90.517791  123.342079
     17          1           0       -4.136016  -87.309198  125.599617
     18          1           0       -2.847506  -86.326805  126.154515
     19          7           0       -3.576576  -88.272334  128.340284
     20          6           0       -3.589042  -88.361295  129.824209
     21          6           0       -3.248092  -86.920374  130.246382
     22          8           0       -4.136491  -86.102911  130.504157
     23          6           0       -4.928032  -88.850876  130.382431
     24          6           0       -4.832304  -89.088542  131.875007
     25          6           0       -4.310703  -90.295556  132.365567
     26          6           0       -5.213204  -88.106818  132.796193
     27          6           0       -4.175486  -90.523526  133.729689
     28          6           0       -5.086237  -88.322058  134.167827
     29          6           0       -4.566331  -89.532738  134.640103
     30          8           0       -4.413685  -89.812741  135.963817
     31          1           0       -4.246700  -87.629057  127.936351
     32          1           0       -2.792278  -89.056903  130.091868
     33          1           0       -5.703168  -88.111071  130.156138
     34          1           0       -5.185772  -89.777812  129.857968
     35          1           0       -4.014802  -91.076633  131.667694
     36          1           0       -5.605568  -87.159786  132.438154
     37          1           0       -3.781348  -91.459350  134.111937
     38          1           0       -5.393737  -87.550674  134.870874
     39          1           0       -4.738181  -89.069404  136.495948
     40          7           0       -1.949537  -86.549038  130.040176
     41          6           0       -1.648530  -85.180389  129.566351
     42          6           0       -2.378070  -85.091949  128.210832
     43          8           0       -1.842438  -85.332178  127.137336
     44          6           0       -0.137841  -84.847014  129.475046
     45          6           0        0.876315  -86.002716  129.331534
     46          6           0        0.755100  -86.925017  128.108172
     47          6           0        1.056109  -86.298167  126.745047
     48          7           0        0.651938  -87.244236  125.682374
     49          8           0       -3.695878  -84.877737  128.234267
     50          1           0       -4.035755  -84.918264  129.163846
     51          1           0       -1.318432  -87.277646  129.726154
     52          1           0       -2.131221  -84.489014  130.261496
     53          1           0       -0.016779  -84.138310  128.649402
     54          1           0        0.123530  -84.302540  130.387952
     55          1           0        0.833093  -86.618298  130.239882
     56          1           0        1.873470  -85.544889  129.343252
     57          1           0        1.422282  -87.784280  128.260275
     58          1           0       -0.247831  -87.348573  128.047154
     59          1           0        0.464651  -85.390799  126.611467
     60          1           0        2.118551  -86.012181  126.687765
     61          1           0        1.319759  -88.014030  125.639318
     62          1           0        0.686167  -86.792850  124.769357
 ---------------------------------------------------------------------

 SCF Done:  E(RB3LYP) =  -1526.28219609     A.U. after    2 cycles

 Alpha  occ. eigenvalues --  -19.33576 -19.32143 -19.27984 -19.27983 -19.25576
 Alpha  occ. eigenvalues --  -19.25199 -19.24535 -14.57309 -14.50565 -14.49228
 Alpha  occ. eigenvalues --  -14.41839 -10.46484 -10.45649 -10.43174 -10.42104
 Alpha  occ. eigenvalues --  -10.38359 -10.36742 -10.35536 -10.35048 -10.34913
 Alpha  occ. eigenvalues --  -10.32051 -10.30140 -10.29735 -10.29059 -10.28712
 Alpha  occ. eigenvalues --  -10.27482 -10.26874 -10.26549 -10.26407 -10.26019
 Alpha  occ. eigenvalues --  -10.25558  -1.24393  -1.23893  -1.17865  -1.17141
 Alpha  occ. eigenvalues --   -1.16104  -1.15110  -1.12690  -1.12203  -1.06479
 Alpha  occ. eigenvalues --   -1.05215  -0.97776  -0.94899  -0.93183  -0.91212
 Alpha  occ. eigenvalues --   -0.89297  -0.86922  -0.86123  -0.82024  -0.81907
 Alpha  occ. eigenvalues --   -0.79622  -0.78289  -0.75899  -0.75818  -0.74780
 Alpha  occ. eigenvalues --   -0.73622  -0.72433  -0.71745  -0.71188  -0.70613
 Alpha  occ. eigenvalues --   -0.69498  -0.67532  -0.66743  -0.66507  -0.66096
 Alpha  occ. eigenvalues --   -0.64736  -0.63032  -0.61655  -0.61537  -0.61271
 Alpha  occ. eigenvalues --   -0.60557  -0.59593  -0.59401  -0.58826  -0.57774
 Alpha  occ. eigenvalues --   -0.57509  -0.56932  -0.56223  -0.55697  -0.55321
 Alpha  occ. eigenvalues --   -0.54523  -0.54388  -0.54078  -0.53637  -0.52989
 Alpha  occ. eigenvalues --   -0.52453  -0.52254  -0.51455  -0.51254  -0.50495
 Alpha  occ. eigenvalues --   -0.49999  -0.49591  -0.49396  -0.49197  -0.48906
 Alpha  occ. eigenvalues --   -0.47661  -0.47369  -0.47057  -0.46929  -0.45312
 Alpha  occ. eigenvalues --   -0.45141  -0.44768  -0.43594  -0.43390  -0.42934
 Alpha  occ. eigenvalues --   -0.42697  -0.42050  -0.41707  -0.40926  -0.40600
 Alpha  occ. eigenvalues --   -0.40116  -0.39071  -0.38325  -0.37673  -0.34317
 Alpha  occ. eigenvalues --   -0.32388  -0.28995
 Alpha virt. eigenvalues --   -0.14758  -0.13874  -0.12975  -0.10431  -0.09716
 Alpha virt. eigenvalues --   -0.07447  -0.07090  -0.06336  -0.03041  -0.02011
 Alpha virt. eigenvalues --   -0.01769  -0.00928  -0.00689  -0.00055   0.00504

 Mulliken charges:
               1
     1  N   -0.806357
     2  C   -0.161719
     3  C    0.638978
     4  O   -0.504081
     5  C   -0.291498
     6  C   -0.406501
     7  C    0.641631
     8  O   -0.471433
     9  O   -0.529879
    10  H    0.436649
    11  H    0.434049
    12  H    0.303299
    13  H    0.182060
    14  H    0.216651
    15  H    0.196794
    16  H    0.189901
    17  H    0.382985
    18  H    0.439666
    19  N   -0.625383
    20  C   -0.067053
    21  C    0.619213
    22  O   -0.537290
    23  C   -0.355226
    24  C    0.139331
    25  C   -0.190012
    26  C   -0.183905
    27  C   -0.154946
    28  C   -0.193322
    29  C    0.356010
    30  O   -0.630601
    31  H    0.330236
    32  H    0.215574
    33  H    0.163068
    34  H    0.164394
    35  H    0.129918
    36  H    0.151026
    37  H    0.155966
    38  H    0.134442
    39  H    0.415522
    40  N   -0.590426
    41  C   -0.055740
    42  C    0.605717
    43  O   -0.490500
    44  C   -0.291973
    45  C   -0.301354
    46  C   -0.269924
    47  C   -0.140390
    48  N   -0.758102
    49  O   -0.583107
    50  H    0.463564
    51  H    0.372683
    52  H    0.204002
    53  H    0.177251
    54  H    0.177242
    55  H    0.156189
    56  H    0.167070
    57  H    0.151517
    58  H    0.129143
    59  H    0.169049
    60  H    0.140193
    61  H    0.310445
    62  H    0.329291
 Sum of Mulliken charges =   1.00000

 Dipole moment (field-independent basis, Debye):
    X=            -12.0305    Y=           -422.0286    Z=            609.1849  Tot=            741.1876
 Quadrupole moment (field-independent basis, Debye-Ang):
   XX=           -126.3551   YY=          36921.0415   ZZ=          77140.3040
   XY=           1057.3088   XZ=          -1532.9259   YZ=         -53492.2008

 Normal termination of Gaussian 16 at Tue May 24 19:13:38 2022.
