 Gaussian 16, Revision C.01,
 Gaussian 16:  ES64L-G16RevC.01  3-Jul-2019

 ----------------------------------------------------------------------
 # B3LYP/6-31G* empiricaldispersion=gd3 guess=read geom=check nosymm in
 tegral(ultrafinegrid)
 ----------------------------------------------------------------------

 ------------------------------------------------------
 Candidate Structure: Conf:962 Charge calc in gas phase
 ------------------------------------------------------
 Structure from the checkpoint file:  "conf-962.chk"
 Charge =  1 Multiplicity = 1

                          Input orientation:
 ---------------------------------------------------------------------
 Center     Atomic      Atomic             Coordinates (Angstroms)
 Number     Number       Type             X           Y           Z
 ---------------------------------------------------------------------
      1          7           0       -1.171513  -90.401622  127.622014
      2          6           0       -2.461440  -90.983606  127.077299
      3          6           0       -3.556446  -90.009286  127.570748
      4          8           0       -4.041829  -90.192680  128.673388
      5          6           0       -2.390709  -91.259976  125.568420
      6          6           0       -1.102986  -91.947773  125.044996
      7          6           0       -0.625074  -93.091845  125.913827
      8          8           0       -0.185850  -92.932717  127.045307
      9          8           0       -0.735452  -94.285589  125.334172
     10          1           0       -0.396977  -94.962965  125.953486
     11          1           0       -0.425400  -91.112373  127.508332
     12          1           0       -2.606854  -91.913439  127.627981
     13          1           0       -2.502993  -90.336173  124.991087
     14          1           0       -3.262222  -91.878017  125.328146
     15          1           0       -0.281890  -91.222068  125.012219
     16          1           0       -1.274608  -92.293134  124.023632
     17          1           0       -0.953351  -89.489029  127.183613
     18          1           0       -1.260113  -90.145244  128.633323
     19          7           0       -3.796032  -88.890733  126.802643
     20          6           0       -3.915392  -87.633055  127.550340
     21          6           0       -2.493479  -87.325471  128.074426
     22          8           0       -1.490129  -87.689383  127.435811
     23          6           0       -4.491444  -86.471630  126.717842
     24          6           0       -4.552579  -85.227801  127.580383
     25          6           0       -5.482946  -85.137545  128.623949
     26          6           0       -3.590802  -84.214649  127.463511
     27          6           0       -5.449113  -84.080418  129.534639
     28          6           0       -3.547081  -83.150092  128.357590
     29          6           0       -4.475421  -83.080665  129.404285
     30          8           0       -4.372762  -82.024849  130.256921
     31          1           0       -3.182189  -88.780736  126.003196
     32          1           0       -4.575788  -87.831387  128.395952
     33          1           0       -3.858087  -86.299861  125.838938
     34          1           0       -5.482303  -86.770523  126.357978
     35          1           0       -6.248253  -85.903482  128.733383
     36          1           0       -2.853434  -84.265587  126.665984
     37          1           0       -6.186893  -84.022648  130.332227
     38          1           0       -2.807327  -82.362051  128.262397
     39          1           0       -5.111594  -82.032943  130.885632
     40          7           0       -2.399089  -86.724554  129.264976
     41          6           0       -1.132524  -86.635806  129.968169
     42          6           0       -0.505124  -88.016175  130.259471
     43          8           0        0.618744  -88.091549  130.700640
     44          6           0       -1.284665  -85.837158  131.287361
     45          6           0       -2.477236  -86.198356  132.206854
     46          6           0       -2.749824  -87.692109  132.474764
     47          6           0       -1.590499  -88.462864  133.144785
     48          7           0       -1.468409  -89.832787  132.565624
     49          8           0       -1.315732  -89.095320  130.111439
     50          1           0       -1.297032  -89.602157  131.061523
     51          1           0       -3.244657  -86.402945  129.716849
     52          1           0       -0.405386  -86.114882  129.337640
     53          1           0       -0.334476  -85.943186  131.818316
     54          1           0       -1.376179  -84.776810  131.025345
     55          1           0       -3.398068  -85.762297  131.793473
     56          1           0       -2.318904  -85.673078  133.157128
     57          1           0       -3.646364  -87.769612  133.101136
     58          1           0       -3.000429  -88.182103  131.528351
     59          1           0       -0.631141  -87.973990  132.962046
     60          1           0       -1.730014  -88.504120  134.231718
     61          1           0       -2.303491  -90.382269  132.772081
     62          1           0       -0.677671  -90.324850  132.981333
 ---------------------------------------------------------------------

 SCF Done:  E(RB3LYP) =  -1526.30384337     A.U. after    1 cycles

 Alpha  occ. eigenvalues --  -19.32713 -19.27574 -19.26315 -19.26283 -19.24846
 Alpha  occ. eigenvalues --  -19.23888 -19.23260 -14.55184 -14.47911 -14.47531
 Alpha  occ. eigenvalues --  -14.46364 -10.45697 -10.41906 -10.41185 -10.40367
 Alpha  occ. eigenvalues --  -10.38600 -10.34706 -10.34463 -10.33986 -10.33936
 Alpha  occ. eigenvalues --  -10.33703 -10.32128 -10.29906 -10.29241 -10.28972
 Alpha  occ. eigenvalues --  -10.28636 -10.28573 -10.28515 -10.28218 -10.28130
 Alpha  occ. eigenvalues --  -10.27343  -1.23911  -1.18181  -1.17119  -1.15278
 Alpha  occ. eigenvalues --   -1.14915  -1.14500  -1.10635  -1.09602  -1.04793
 Alpha  occ. eigenvalues --   -1.04212  -1.01364  -0.94892  -0.94185  -0.90842
 Alpha  occ. eigenvalues --   -0.89255  -0.86778  -0.85576  -0.83871  -0.82205
 Alpha  occ. eigenvalues --   -0.79758  -0.78909  -0.75782  -0.73760  -0.72888
 Alpha  occ. eigenvalues --   -0.72391  -0.71374  -0.71104  -0.69532  -0.69297
 Alpha  occ. eigenvalues --   -0.68478  -0.67841  -0.66629  -0.64374  -0.63589
 Alpha  occ. eigenvalues --   -0.63333  -0.62590  -0.61951  -0.61024  -0.60928
 Alpha  occ. eigenvalues --   -0.60484  -0.59597  -0.58841  -0.58168  -0.57859
 Alpha  occ. eigenvalues --   -0.57021  -0.56547  -0.56169  -0.55627  -0.54911
 Alpha  occ. eigenvalues --   -0.54590  -0.53771  -0.53175  -0.53030  -0.52745
 Alpha  occ. eigenvalues --   -0.52352  -0.52231  -0.51140  -0.51045  -0.50497
 Alpha  occ. eigenvalues --   -0.50208  -0.50035  -0.49327  -0.48898  -0.48672
 Alpha  occ. eigenvalues --   -0.48149  -0.47644  -0.47257  -0.46346  -0.45942
 Alpha  occ. eigenvalues --   -0.44854  -0.44726  -0.43878  -0.43107  -0.42976
 Alpha  occ. eigenvalues --   -0.42621  -0.41738  -0.41346  -0.40254  -0.39468
 Alpha  occ. eigenvalues --   -0.38637  -0.38444  -0.38116  -0.36869  -0.35384
 Alpha  occ. eigenvalues --   -0.34317  -0.30792
 Alpha virt. eigenvalues --   -0.13162  -0.12654  -0.10296  -0.10009  -0.09595
 Alpha virt. eigenvalues --   -0.08179  -0.05654  -0.03606  -0.03391  -0.03084
 Alpha virt. eigenvalues --   -0.01783  -0.01075  -0.00273   0.00296   0.00473

 Mulliken charges:
               1
     1  N   -0.807899
     2  C   -0.095860
     3  C    0.590755
     4  O   -0.469920
     5  C   -0.308198
     6  C   -0.376530
     7  C    0.606906
     8  O   -0.484483
     9  O   -0.526175
    10  H    0.437155
    11  H    0.421898
    12  H    0.220657
    13  H    0.176736
    14  H    0.211053
    15  H    0.193769
    16  H    0.217896
    17  H    0.421261
    18  H    0.449351
    19  N   -0.567861
    20  C   -0.084893
    21  C    0.643998
    22  O   -0.601976
    23  C   -0.357887
    24  C    0.140183
    25  C   -0.216630
    26  C   -0.180769
    27  C   -0.198311
    28  C   -0.159860
    29  C    0.350816
    30  O   -0.628222
    31  H    0.331708
    32  H    0.198769
    33  H    0.160996
    34  H    0.184550
    35  H    0.144523
    36  H    0.144702
    37  H    0.141177
    38  H    0.163048
    39  H    0.417485
    40  N   -0.584090
    41  C   -0.020106
    42  C    0.595405
    43  O   -0.446231
    44  C   -0.321933
    45  C   -0.296581
    46  C   -0.305567
    47  C   -0.165308
    48  N   -0.788083
    49  O   -0.678321
    50  H    0.466593
    51  H    0.362269
    52  H    0.205156
    53  H    0.188502
    54  H    0.178369
    55  H    0.145208
    56  H    0.168039
    57  H    0.160779
    58  H    0.167109
    59  H    0.192057
    60  H    0.172200
    61  H    0.346513
    62  H    0.354104
 Sum of Mulliken charges =   1.00000

 Dipole moment (field-independent basis, Debye):
    X=            -12.1414    Y=           -429.7812    Z=            618.0001  Tot=            752.8502
 Quadrupole moment (field-independent basis, Debye-Ang):
   XX=           -142.0044   YY=          38333.3417   ZZ=          79397.6128
   XY=           1058.2704   XZ=          -1573.6113   YZ=         -55268.7904

 Normal termination of Gaussian 16 at Tue May 24 19:13:23 2022.
