 Gaussian 16, Revision C.01,
 Gaussian 16:  ES64L-G16RevC.01  3-Jul-2019

 ----------------------------------------------------------------------
 # B3LYP/6-31G* empiricaldispersion=gd3 guess=read geom=check nosymm in
 tegral(ultrafinegrid)
 ----------------------------------------------------------------------

 ------------------------------------------------------
 Candidate Structure: Conf:304 Charge calc in gas phase
 ------------------------------------------------------
 Structure from the checkpoint file:  "conf-304.chk"
 Charge =  1 Multiplicity = 1

                          Input orientation:
 ---------------------------------------------------------------------
 Center     Atomic      Atomic             Coordinates (Angstroms)
 Number     Number       Type             X           Y           Z
 ---------------------------------------------------------------------
      1          7           0        0.659502  -88.273658  128.235545
      2          6           0       -0.076573  -88.283828  129.545978
      3          6           0       -1.543786  -88.707023  129.580937
      4          8           0       -2.210457  -88.261773  130.513594
      5          6           0        0.775233  -88.938707  130.648566
      6          6           0        2.203417  -88.333371  130.747794
      7          6           0        2.128693  -86.830152  130.474051
      8          8           0        2.051504  -86.474445  129.237217
      9          8           0        2.000519  -86.041901  131.435950
     10          1           0        1.225205  -84.784462  130.806128
     11          1           0        1.055924  -89.177468  127.970747
     12          1           0       -0.155499  -87.220677  129.774203
     13          1           0        0.835121  -90.022640  130.491782
     14          1           0        0.229030  -88.774157  131.581502
     15          1           0        2.866299  -88.799175  130.010572
     16          1           0        2.608785  -88.524210  131.742890
     17          1           0        0.105296  -87.886248  127.458538
     18          1           0        1.481859  -87.487268  128.509593
     19          7           0       -2.082458  -89.442710  128.570150
     20          6           0       -3.542796  -89.342528  128.316295
     21          6           0       -3.619900  -88.035739  127.506146
     22          8           0       -3.526775  -88.044292  126.269910
     23          6           0       -4.105310  -90.546554  127.560781
     24          6           0       -5.609479  -90.432893  127.423021
     25          6           0       -6.195362  -89.909717  126.265187
     26          6           0       -6.448334  -90.810721  128.482949
     27          6           0       -7.578907  -89.772465  126.160301
     28          6           0       -7.828593  -90.677057  128.394174
     29          6           0       -8.401704  -90.156647  127.225734
     30          8           0       -9.758484  -90.052038  127.195635
     31          1           0       -1.512704  -89.684702  127.767386
     32          1           0       -4.022085  -89.241885  129.290414
     33          1           0       -3.631175  -90.606252  126.574934
     34          1           0       -3.830312  -91.447814  128.120437
     35          1           0       -5.563498  -89.598744  125.438223
     36          1           0       -6.015022  -91.229480  129.389406
     37          1           0       -8.019179  -89.371712  125.249482
     38          1           0       -8.480665  -90.978184  129.207454
     39          1           0      -10.043785  -89.717677  126.330658
     40          7           0       -3.516115  -86.886870  128.226443
     41          6           0       -3.065268  -85.628936  127.603056
     42          6           0       -1.551576  -85.835404  127.324296
     43          8           0       -0.629355  -85.377094  127.967791
     44          6           0       -3.471282  -84.379656  128.419914
     45          6           0       -2.478098  -83.768872  129.427953
     46          6           0       -1.996913  -84.670084  130.579508
     47          6           0       -0.746413  -84.110086  131.265904
     48          7           0        0.469905  -84.151895  130.356883
     49          8           0       -1.268318  -86.721839  126.353755
     50          1           0       -2.102761  -87.127450  125.985108
     51          1           0       -3.456920  -86.961805  129.237691
     52          1           0       -3.575340  -85.583046  126.636321
     53          1           0       -3.713347  -83.591613  127.699290
     54          1           0       -4.417258  -84.629344  128.916229
     55          1           0       -2.964252  -82.885154  129.859476
     56          1           0       -1.618130  -83.394916  128.864376
     57          1           0       -2.778817  -84.765872  131.342220
     58          1           0       -1.781674  -85.690121  130.243880
     59          1           0       -0.897062  -83.071853  131.570743
     60          1           0       -0.481890  -84.693466  132.150820
     61          1           0        0.869015  -83.227928  130.184064
     62          1           0        0.270373  -84.585488  129.443594
 ---------------------------------------------------------------------

 SCF Done:  E(RB3LYP) =  -1526.30623990     A.U. after    1 cycles

 Alpha  occ. eigenvalues --  -19.32628 -19.28412 -19.26288 -19.25836 -19.24964
 Alpha  occ. eigenvalues --  -19.23162 -19.22522 -14.54262 -14.53659 -14.50835
 Alpha  occ. eigenvalues --  -14.50289 -10.46498 -10.43443 -10.42922 -10.40246
 Alpha  occ. eigenvalues --  -10.38289 -10.37924 -10.36326 -10.36153 -10.32688
 Alpha  occ. eigenvalues --  -10.32509 -10.31984 -10.31645 -10.30958 -10.30238
 Alpha  occ. eigenvalues --  -10.29609 -10.27370 -10.26991 -10.26913 -10.26489
 Alpha  occ. eigenvalues --  -10.25995  -1.24245  -1.18578  -1.17654  -1.16371
 Alpha  occ. eigenvalues --   -1.15519  -1.13126  -1.10227  -1.08837  -1.07062
 Alpha  occ. eigenvalues --   -1.06656  -1.06031  -0.93820  -0.93258  -0.92378
 Alpha  occ. eigenvalues --   -0.90266  -0.88672  -0.84758  -0.83917  -0.82430
 Alpha  occ. eigenvalues --   -0.81607  -0.77214  -0.76581  -0.75728  -0.74651
 Alpha  occ. eigenvalues --   -0.73287  -0.72576  -0.71481  -0.70150  -0.69932
 Alpha  occ. eigenvalues --   -0.69286  -0.68408  -0.67709  -0.66947  -0.66219
 Alpha  occ. eigenvalues --   -0.64800  -0.63768  -0.62779  -0.62303  -0.61884
 Alpha  occ. eigenvalues --   -0.61420  -0.60528  -0.59467  -0.58561  -0.58356
 Alpha  occ. eigenvalues --   -0.57372  -0.56701  -0.56282  -0.55821  -0.55593
 Alpha  occ. eigenvalues --   -0.55295  -0.54753  -0.54521  -0.54114  -0.53506
 Alpha  occ. eigenvalues --   -0.52838  -0.52403  -0.51973  -0.51475  -0.51174
 Alpha  occ. eigenvalues --   -0.50797  -0.50013  -0.49697  -0.49618  -0.48841
 Alpha  occ. eigenvalues --   -0.48064  -0.47710  -0.47266  -0.47083  -0.46690
 Alpha  occ. eigenvalues --   -0.46258  -0.45824  -0.45244  -0.45066  -0.43886
 Alpha  occ. eigenvalues --   -0.42693  -0.41618  -0.41172  -0.40609  -0.39837
 Alpha  occ. eigenvalues --   -0.39242  -0.38438  -0.38377  -0.37642  -0.36522
 Alpha  occ. eigenvalues --   -0.32852  -0.29458
 Alpha virt. eigenvalues --   -0.15634  -0.13261  -0.10892  -0.08535  -0.08227
 Alpha virt. eigenvalues --   -0.07876  -0.06873  -0.06283  -0.03869  -0.02734
 Alpha virt. eigenvalues --   -0.02450  -0.01273  -0.00891  -0.00003   0.00211

 Mulliken charges:
               1
     1  N   -0.816041
     2  C   -0.126589
     3  C    0.630470
     4  O   -0.518275
     5  C   -0.288964
     6  C   -0.355249
     7  C    0.608572
     8  O   -0.621247
     9  O   -0.549921
    10  H    0.440923
    11  H    0.377263
    12  H    0.219191
    13  H    0.172211
    14  H    0.212268
    15  H    0.164100
    16  H    0.202470
    17  H    0.408690
    18  H    0.465679
    19  N   -0.606359
    20  C   -0.063445
    21  C    0.629586
    22  O   -0.554139
    23  C   -0.366159
    24  C    0.138833
    25  C   -0.185067
    26  C   -0.190560
    27  C   -0.193949
    28  C   -0.155404
    29  C    0.356037
    30  O   -0.629687
    31  H    0.333270
    32  H    0.210837
    33  H    0.165591
    34  H    0.174110
    35  H    0.150055
    36  H    0.133359
    37  H    0.134739
    38  H    0.158067
    39  H    0.415842
    40  N   -0.607068
    41  C   -0.070162
    42  C    0.620623
    43  O   -0.480691
    44  C   -0.314767
    45  C   -0.265377
    46  C   -0.308621
    47  C   -0.173120
    48  N   -0.814266
    49  O   -0.603183
    50  H    0.464751
    51  H    0.381326
    52  H    0.212942
    53  H    0.184452
    54  H    0.180133
    55  H    0.167170
    56  H    0.149580
    57  H    0.182952
    58  H    0.157908
    59  H    0.195030
    60  H    0.216510
    61  H    0.391664
    62  H    0.451109
 Sum of Mulliken charges =   1.00000

 Dipole moment (field-independent basis, Debye):
    X=             -8.0445    Y=           -416.7122    Z=            617.6132  Tot=            745.0905
 Quadrupole moment (field-independent basis, Debye-Ang):
   XX=           -135.4290   YY=          36019.5128   ZZ=          79248.1904
   XY=            690.8833   XZ=          -1018.1143   YZ=         -53568.6095

 Normal termination of Gaussian 16 at Tue May 24 19:13:23 2022.
