 Gaussian 16, Revision C.01,
 Gaussian 16:  ES64L-G16RevC.01  3-Jul-2019

 ----------------------------------------------------------------------
 # B3LYP/6-31G* empiricaldispersion=gd3 guess=read geom=check nosymm in
 tegral(ultrafinegrid)
 ----------------------------------------------------------------------

 ------------------------------------------------------
 Candidate Structure: Conf:370 Charge calc in gas phase
 ------------------------------------------------------
 Structure from the checkpoint file:  "conf-370.chk"
 Charge =  1 Multiplicity = 1

                          Input orientation:
 ---------------------------------------------------------------------
 Center     Atomic      Atomic             Coordinates (Angstroms)
 Number     Number       Type             X           Y           Z
 ---------------------------------------------------------------------
      1          7           0       -5.946608  -86.542713  128.388055
      2          6           0       -5.417636  -87.807230  129.027405
      3          6           0       -4.465283  -87.664935  130.219828
      4          8           0       -4.108502  -88.702921  130.761123
      5          6           0       -6.514712  -88.865495  129.111136
      6          6           0       -7.155837  -89.172962  127.721493
      7          6           0       -6.153865  -89.000398  126.569401
      8          8           0       -5.958004  -87.794414  126.156453
      9          8           0       -5.536058  -90.001791  126.142714
     10          1           0       -4.506389  -89.806953  124.936835
     11          1           0       -6.197928  -86.877359  127.364303
     12          1           0       -4.693401  -88.150434  128.287818
     13          1           0       -7.291499  -88.580061  129.830154
     14          1           0       -6.026727  -89.757223  129.510465
     15          1           0       -7.999047  -88.498823  127.536343
     16          1           0       -7.538642  -90.195106  127.722883
     17          1           0       -6.744080  -86.133568  128.881888
     18          1           0       -5.213980  -85.837969  128.268332
     19          7           0       -3.847888  -86.461674  130.434101
     20          6           0       -2.381497  -86.445959  130.684545
     21          6           0       -1.768777  -86.685877  129.279027
     22          8           0       -1.477362  -85.772063  128.519104
     23          6           0       -1.920551  -85.125834  131.305069
     24          6           0       -0.465965  -85.194913  131.722415
     25          6           0       -0.115793  -85.662677  132.994200
     26          6           0        0.563232  -84.836351  130.838610
     27          6           0        1.218750  -85.769914  133.382186
     28          6           0        1.898857  -84.937355  131.212172
     29          6           0        2.233147  -85.405647  132.488788
     30          8           0        3.558571  -85.481839  132.796641
     31          1           0       -4.161652  -85.644771  129.925814
     32          1           0       -2.168841  -87.275351  131.360763
     33          1           0       -2.070911  -84.322596  130.574350
     34          1           0       -2.561732  -84.920581  132.169552
     35          1           0       -0.894878  -85.939657  133.701604
     36          1           0        0.310536  -84.481014  129.844252
     37          1           0        1.471408  -86.127147  134.378418
     38          1           0        2.697341  -84.653100  130.534535
     39          1           0        3.664669  -85.789394  133.710437
     40          7           0       -1.758571  -87.994668  128.887314
     41          6           0       -1.497096  -88.407608  127.520398
     42          6           0       -2.332093  -87.684441  126.465300
     43          8           0       -2.065974  -87.745304  125.275252
     44          6           0       -1.901972  -89.906509  127.385197
     45          6           0       -1.414079  -90.617945  126.098525
     46          6           0       -2.475777  -91.551201  125.453138
     47          6           0       -3.005867  -91.091900  124.092851
     48          7           0       -3.743148  -89.777652  124.173996
     49          8           0       -3.488295  -87.176231  126.913634
     50          1           0       -4.171991  -87.179343  126.195444
     51          1           0       -2.066988  -88.698991  129.546425
     52          1           0       -0.444560  -88.263425  127.256765
     53          1           0       -1.508490  -90.431638  128.263058
     54          1           0       -2.996320  -89.960844  127.463728
     55          1           0       -0.522985  -91.203456  126.342650
     56          1           0       -1.080067  -89.875094  125.367756
     57          1           0       -2.046893  -92.544153  125.280208
     58          1           0       -3.326641  -91.702827  126.127673
     59          1           0       -2.195017  -90.963277  123.369978
     60          1           0       -3.715927  -91.820510  123.693607
     61          1           0       -4.193036  -89.551597  123.282998
     62          1           0       -3.104684  -88.995532  124.404076
 ---------------------------------------------------------------------

 SCF Done:  E(RB3LYP) =  -1526.29748061     A.U. after    3 cycles

 Alpha  occ. eigenvalues --  -19.32006 -19.27040 -19.24909 -19.24809 -19.24270
 Alpha  occ. eigenvalues --  -19.24043 -19.22740 -14.57613 -14.54455 -14.49140
 Alpha  occ. eigenvalues --  -14.47386 -10.45273 -10.42733 -10.41923 -10.39660
 Alpha  occ. eigenvalues --  -10.38473 -10.36528 -10.36086 -10.34355 -10.32710
 Alpha  occ. eigenvalues --  -10.31779 -10.31473 -10.31133 -10.31113 -10.30335
 Alpha  occ. eigenvalues --  -10.28199 -10.26230 -10.26094 -10.25572 -10.25512
 Alpha  occ. eigenvalues --  -10.24852  -1.23424  -1.17668  -1.17183  -1.14744
 Alpha  occ. eigenvalues --   -1.14356  -1.12633  -1.12165  -1.09840  -1.08186
 Alpha  occ. eigenvalues --   -1.05208  -1.03999  -0.93150  -0.92653  -0.92363
 Alpha  occ. eigenvalues --   -0.89298  -0.87776  -0.84970  -0.83342  -0.81354
 Alpha  occ. eigenvalues --   -0.80593  -0.77447  -0.76425  -0.75246  -0.73837
 Alpha  occ. eigenvalues --   -0.72077  -0.71740  -0.71444  -0.70827  -0.69369
 Alpha  occ. eigenvalues --   -0.69015  -0.68780  -0.67786  -0.65754  -0.65462
 Alpha  occ. eigenvalues --   -0.64511  -0.63801  -0.62445  -0.61598  -0.60900
 Alpha  occ. eigenvalues --   -0.60728  -0.59652  -0.59552  -0.58895  -0.57814
 Alpha  occ. eigenvalues --   -0.57235  -0.56833  -0.56206  -0.55608  -0.54941
 Alpha  occ. eigenvalues --   -0.54784  -0.53985  -0.53742  -0.53580  -0.52981
 Alpha  occ. eigenvalues --   -0.52194  -0.52014  -0.51407  -0.50377  -0.50163
 Alpha  occ. eigenvalues --   -0.49812  -0.48969  -0.48707  -0.48569  -0.47866
 Alpha  occ. eigenvalues --   -0.47631  -0.47208  -0.46794  -0.46400  -0.46185
 Alpha  occ. eigenvalues --   -0.45755  -0.45225  -0.44372  -0.44123  -0.42649
 Alpha  occ. eigenvalues --   -0.40787  -0.40207  -0.40173  -0.39879  -0.39552
 Alpha  occ. eigenvalues --   -0.39430  -0.38447  -0.37893  -0.36882  -0.35488
 Alpha  occ. eigenvalues --   -0.31770  -0.28423
 Alpha virt. eigenvalues --   -0.13354  -0.12854  -0.10330  -0.09581  -0.08120
 Alpha virt. eigenvalues --   -0.06770  -0.06693  -0.05791  -0.05356  -0.03036
 Alpha virt. eigenvalues --   -0.01559  -0.01159  -0.00793   0.00027   0.00931

 Mulliken charges:
               1
     1  N   -0.784610
     2  C   -0.146880
     3  C    0.623548
     4  O   -0.494325
     5  C   -0.281284
     6  C   -0.363452
     7  C    0.605694
     8  O   -0.628647
     9  O   -0.554245
    10  H    0.436031
    11  H    0.440693
    12  H    0.257472
    13  H    0.176572
    14  H    0.218741
    15  H    0.169102
    16  H    0.201454
    17  H    0.398877
    18  H    0.394907
    19  N   -0.595521
    20  C   -0.074593
    21  C    0.637713
    22  O   -0.517450
    23  C   -0.366920
    24  C    0.139336
    25  C   -0.189643
    26  C   -0.189072
    27  C   -0.191321
    28  C   -0.160706
    29  C    0.355200
    30  O   -0.632722
    31  H    0.316973
    32  H    0.201029
    33  H    0.164835
    34  H    0.166801
    35  H    0.131334
    36  H    0.157687
    37  H    0.132737
    38  H    0.152781
    39  H    0.414128
    40  N   -0.644626
    41  C    0.012597
    42  C    0.640653
    43  O   -0.497026
    44  C   -0.353734
    45  C   -0.308902
    46  C   -0.294596
    47  C   -0.188755
    48  N   -0.809033
    49  O   -0.606510
    50  H    0.432982
    51  H    0.362857
    52  H    0.210525
    53  H    0.185319
    54  H    0.170166
    55  H    0.181094
    56  H    0.179839
    57  H    0.187146
    58  H    0.190093
    59  H    0.202078
    60  H    0.203947
    61  H    0.393251
    62  H    0.428383
 Sum of Mulliken charges =   1.00000

 Dipole moment (field-independent basis, Debye):
    X=            -20.7320    Y=           -425.1210    Z=            612.1924  Tot=            745.6120
 Quadrupole moment (field-independent basis, Debye-Ang):
   XX=            -60.0611   YY=          37467.4672   ZZ=          77905.6063
   XY=           1812.5316   XZ=          -2633.8118   YZ=         -54153.0041

 Normal termination of Gaussian 16 at Tue May 24 19:13:53 2022.
