 Gaussian 16, Revision C.01,
 Gaussian 16:  ES64L-G16RevC.01  3-Jul-2019

 ----------------------------------------------------------------------
 # B3LYP/6-31G* empiricaldispersion=gd3 guess=read geom=check nosymm in
 tegral(ultrafinegrid)
 ----------------------------------------------------------------------

 ------------------------------------------------------
 Candidate Structure: Conf:197 Charge calc in gas phase
 ------------------------------------------------------
 Structure from the checkpoint file:  "conf-197.chk"
 Charge =  1 Multiplicity = 1

                          Input orientation:
 ---------------------------------------------------------------------
 Center     Atomic      Atomic             Coordinates (Angstroms)
 Number     Number       Type             X           Y           Z
 ---------------------------------------------------------------------
      1          7           0       -6.334365  -87.734852  127.818026
      2          6           0       -5.675896  -87.880266  129.154515
      3          6           0       -4.314985  -88.557030  128.876704
      4          8           0       -4.069114  -88.969191  127.739561
      5          6           0       -5.513841  -86.513524  129.862037
      6          6           0       -6.676846  -85.506676  129.698256
      7          6           0       -8.039177  -86.101999  129.991544
      8          8           0       -8.555753  -86.970148  129.300601
      9          8           0       -8.613323  -85.598514  131.082153
     10          1           0       -9.486605  -86.024142  131.198713
     11          1           0       -7.318066  -87.449512  127.972918
     12          1           0       -6.314158  -88.540318  129.750182
     13          1           0       -4.601234  -86.028529  129.503356
     14          1           0       -5.371207  -86.711905  130.930126
     15          1           0       -6.704773  -85.137164  128.666420
     16          1           0       -6.495401  -84.648700  130.349028
     17          1           0       -5.750718  -87.043697  127.192548
     18          1           0       -6.295475  -88.634972  127.329885
     19          7           0       -3.447999  -88.630480  129.904226
     20          6           0       -2.026743  -88.966643  129.682769
     21          6           0       -1.361525  -87.658495  129.199188
     22          8           0       -0.896849  -86.837127  129.979829
     23          6           0       -1.369978  -89.498165  130.961430
     24          6           0        0.026729  -90.012155  130.681725
     25          6           0        1.146951  -89.184675  130.820269
     26          6           0        0.220841  -91.326099  130.229709
     27          6           0        2.425667  -89.654017  130.522978
     28          6           0        1.489476  -91.807068  129.927245
     29          6           0        2.601795  -90.968401  130.075240
     30          8           0        3.820212  -91.493689  129.766675
     31          1           0       -3.663473  -88.167371  130.778382
     32          1           0       -2.000605  -89.731505  128.903743
     33          1           0       -1.341035  -88.689618  131.700463
     34          1           0       -2.003152  -90.299801  131.359318
     35          1           0        1.016871  -88.159647  131.153813
     36          1           0       -0.634841  -91.990358  130.123670
     37          1           0        3.286872  -88.999860  130.643099
     38          1           0        1.643618  -92.826063  129.587809
     39          1           0        4.512785  -90.836877  129.939680
     40          7           0       -1.453506  -87.423399  127.860965
     41          6           0       -0.924805  -86.197365  127.273174
     42          6           0       -1.414030  -84.953015  128.011360
     43          8           0       -0.755984  -83.959107  128.169241
     44          6           0       -1.243467  -86.156078  125.737681
     45          6           0       -1.853212  -84.854508  125.139077
     46          6           0       -3.282389  -84.977891  124.572442
     47          6           0       -4.441291  -85.116254  125.572644
     48          7           0       -4.488225  -86.390334  126.330426
     49          8           0       -2.733329  -85.016589  128.385625
     50          1           0       -2.914002  -84.157296  128.812985
     51          1           0       -1.841413  -88.140501  127.262535
     52          1           0        0.158813  -86.164454  127.420189
     53          1           0       -0.308082  -86.381359  125.219665
     54          1           0       -1.908423  -86.995652  125.506064
     55          1           0       -1.210100  -84.532902  124.313878
     56          1           0       -1.816581  -84.029794  125.858268
     57          1           0       -3.484804  -84.079185  123.975888
     58          1           0       -3.323751  -85.819599  123.864765
     59          1           0       -4.405406  -84.308506  126.311446
     60          1           0       -5.389279  -85.018439  125.032251
     61          1           0       -3.725789  -86.405584  127.006098
     62          1           0       -4.309054  -87.175887  125.702368
 ---------------------------------------------------------------------

 SCF Done:  E(RB3LYP) =  -1526.30290241     A.U. after    1 cycles

 Alpha  occ. eigenvalues --  -19.33598 -19.31261 -19.28500 -19.26478 -19.24534
 Alpha  occ. eigenvalues --  -19.24326 -19.22693 -14.55297 -14.50348 -14.47464
 Alpha  occ. eigenvalues --  -14.46504 -10.46634 -10.43762 -10.42761 -10.39983
 Alpha  occ. eigenvalues --  -10.39634 -10.35343 -10.35081 -10.34815 -10.34752
 Alpha  occ. eigenvalues --  -10.32958 -10.31805 -10.30797 -10.29256 -10.29074
 Alpha  occ. eigenvalues --  -10.28745 -10.26597 -10.26311 -10.26047 -10.25753
 Alpha  occ. eigenvalues --  -10.25330  -1.24814  -1.21508  -1.18659  -1.15826
 Alpha  occ. eigenvalues --   -1.14726  -1.12494  -1.12467  -1.10876  -1.06538
 Alpha  occ. eigenvalues --   -1.03852  -1.02102  -0.95212  -0.92896  -0.91063
 Alpha  occ. eigenvalues --   -0.89593  -0.87185  -0.86236  -0.81911  -0.81688
 Alpha  occ. eigenvalues --   -0.80571  -0.79447  -0.76090  -0.75115  -0.73874
 Alpha  occ. eigenvalues --   -0.72966  -0.71800  -0.71393  -0.69969  -0.69453
 Alpha  occ. eigenvalues --   -0.69217  -0.68202  -0.66066  -0.65236  -0.64514
 Alpha  occ. eigenvalues --   -0.63610  -0.62694  -0.61878  -0.61419  -0.61103
 Alpha  occ. eigenvalues --   -0.60506  -0.59849  -0.59402  -0.59010  -0.58259
 Alpha  occ. eigenvalues --   -0.57686  -0.57451  -0.56599  -0.55557  -0.55353
 Alpha  occ. eigenvalues --   -0.54707  -0.54620  -0.53899  -0.52925  -0.52842
 Alpha  occ. eigenvalues --   -0.51914  -0.51710  -0.51392  -0.51125  -0.50910
 Alpha  occ. eigenvalues --   -0.50518  -0.50212  -0.49777  -0.49210  -0.48874
 Alpha  occ. eigenvalues --   -0.47879  -0.47390  -0.47070  -0.46959  -0.45736
 Alpha  occ. eigenvalues --   -0.45430  -0.44510  -0.44219  -0.43600  -0.43145
 Alpha  occ. eigenvalues --   -0.42845  -0.42289  -0.40917  -0.40668  -0.40181
 Alpha  occ. eigenvalues --   -0.39764  -0.38972  -0.38657  -0.36390  -0.35700
 Alpha  occ. eigenvalues --   -0.32127  -0.28759
 Alpha virt. eigenvalues --   -0.13836  -0.12857  -0.09874  -0.08927  -0.07968
 Alpha virt. eigenvalues --   -0.07171  -0.06246  -0.05606  -0.05186  -0.04371
 Alpha virt. eigenvalues --   -0.03457  -0.01542  -0.00780  -0.00740  -0.00152

 Mulliken charges:
               1
     1  N   -0.783989
     2  C   -0.110367
     3  C    0.648234
     4  O   -0.549709
     5  C   -0.331328
     6  C   -0.379937
     7  C    0.607043
     8  O   -0.481863
     9  O   -0.525780
    10  H    0.439273
    11  H    0.418017
    12  H    0.223901
    13  H    0.210454
    14  H    0.187607
    15  H    0.194777
    16  H    0.214970
    17  H    0.433158
    18  H    0.398072
    19  N   -0.597165
    20  C   -0.067416
    21  C    0.649636
    22  O   -0.513400
    23  C   -0.375155
    24  C    0.139735
    25  C   -0.188092
    26  C   -0.190282
    27  C   -0.195811
    28  C   -0.156385
    29  C    0.355450
    30  O   -0.631848
    31  H    0.352437
    32  H    0.191708
    33  H    0.172487
    34  H    0.162675
    35  H    0.160634
    36  H    0.127573
    37  H    0.134597
    38  H    0.154450
    39  H    0.415059
    40  N   -0.645447
    41  C   -0.000044
    42  C    0.614998
    43  O   -0.433852
    44  C   -0.328032
    45  C   -0.285623
    46  C   -0.286145
    47  C   -0.141508
    48  N   -0.810965
    49  O   -0.604821
    50  H    0.420631
    51  H    0.356618
    52  H    0.214680
    53  H    0.191137
    54  H    0.134131
    55  H    0.174516
    56  H    0.173399
    57  H    0.168494
    58  H    0.146221
    59  H    0.153045
    60  H    0.164849
    61  H    0.375537
    62  H    0.334761
 Sum of Mulliken charges =   1.00000

 Dipole moment (field-independent basis, Debye):
    X=            -24.2387    Y=           -418.0397    Z=            616.1911  Tot=            745.0075
 Quadrupole moment (field-independent basis, Debye-Ang):
   XX=             -7.0404   YY=          36209.9788   ZZ=          78899.0903
   XY=           2098.2467   XZ=          -3124.2949   YZ=         -53636.5369

 Normal termination of Gaussian 16 at Tue May 24 19:13:23 2022.
