 Gaussian 16, Revision C.01,
 Gaussian 16:  ES64L-G16RevC.01  3-Jul-2019

 ----------------------------------------------------------------------
 # B3LYP/6-31G* empiricaldispersion=gd3 guess=read geom=check nosymm in
 tegral(ultrafinegrid)
 ----------------------------------------------------------------------

 -----------------------------------------------------
 Candidate Structure: Conf:34 Charge calc in gas phase
 -----------------------------------------------------
 Structure from the checkpoint file:  "conf-34.chk"
 Charge =  1 Multiplicity = 1

                          Input orientation:
 ---------------------------------------------------------------------
 Center     Atomic      Atomic             Coordinates (Angstroms)
 Number     Number       Type             X           Y           Z
 ---------------------------------------------------------------------
      1          7           0       -0.612128  -91.497843  124.774991
      2          6           0       -1.142062  -91.221013  126.156021
      3          6           0       -0.644083  -89.793675  126.490269
      4          8           0       -0.324671  -89.053123  125.561827
      5          6           0       -2.687363  -91.224394  126.177561
      6          6           0       -3.384411  -92.595921  126.180728
      7          6           0       -3.352506  -93.349086  124.856593
      8          8           0       -2.574838  -93.099789  123.947790
      9          8           0       -4.211908  -94.353671  124.702832
     10          1           0       -4.804526  -94.455143  125.467757
     11          1           0       -0.500314  -90.559681  124.338400
     12          1           0       -0.734341  -91.969350  126.841591
     13          1           0       -3.050004  -90.617337  125.339108
     14          1           0       -2.992640  -90.694209  127.087151
     15          1           0       -4.430895  -92.445135  126.473691
     16          1           0       -2.950581  -93.253481  126.947968
     17          1           0        0.311620  -91.939174  124.789875
     18          1           0       -1.295552  -92.108986  124.250507
     19          7           0       -0.659956  -89.473494  127.796084
     20          6           0       -0.796505  -88.090869  128.254167
     21          6           0       -2.246747  -87.973017  128.790421
     22          8           0       -2.907731  -88.990710  129.024337
     23          6           0        0.272174  -87.753263  129.328819
     24          6           0        0.176339  -86.328628  129.828292
     25          6           0       -0.315897  -86.039787  131.108429
     26          6           0        0.492749  -85.251452  128.987519
     27          6           0       -0.496848  -84.726408  131.539302
     28          6           0        0.313538  -83.930914  129.398244
     29          6           0       -0.180083  -83.659585  130.682541
     30          8           0       -0.382763  -82.407958  131.159296
     31          1           0       -1.138164  -90.119309  128.420147
     32          1           0       -0.658799  -87.440984  127.386177
     33          1           0        0.161886  -88.455933  130.163212
     34          1           0        1.250951  -87.945436  128.874317
     35          1           0       -0.573095  -86.854418  131.780607
     36          1           0        0.885874  -85.441571  127.990867
     37          1           0       -0.861704  -84.503481  132.537003
     38          1           0        0.564851  -83.112258  128.728336
     39          1           0       -0.169495  -81.747486  130.480917
     40          7           0       -2.694815  -86.720022  128.982489
     41          6           0       -3.994073  -86.410161  129.596946
     42          6           0       -4.272667  -84.915646  129.408459
     43          8           0       -5.301084  -84.491865  128.949817
     44          6           0       -4.064692  -86.836440  131.084088
     45          6           0       -5.397459  -86.437582  131.749175
     46          6           0       -5.374623  -85.056339  132.427448
     47          6           0       -6.776331  -84.448105  132.637592
     48          7           0       -7.523104  -84.114425  131.424702
     49          8           0       -3.282037  -84.069890  129.798341
     50          1           0       -2.607063  -84.510391  130.350886
     51          1           0       -2.064993  -85.954132  128.778229
     52          1           0       -4.772963  -86.938856  129.042987
     53          1           0       -3.924111  -87.920925  131.097178
     54          1           0       -3.216060  -86.400190  131.627801
     55          1           0       -5.673883  -87.195306  132.491403
     56          1           0       -6.187197  -86.458936  130.986392
     57          1           0       -4.857665  -85.141943  133.394066
     58          1           0       -4.785925  -84.343702  131.835375
     59          1           0       -7.392138  -85.132875  133.235639
     60          1           0       -6.671711  -83.531594  133.231493
     61          1           0       -7.784819  -84.955487  130.915363
     62          1           0       -6.941752  -83.572842  130.785933
 ---------------------------------------------------------------------

 SCF Done:  E(RB3LYP) =  -1526.27159108     A.U. after    1 cycles

 Alpha  occ. eigenvalues --  -19.34320 -19.29572 -19.28083 -19.27708 -19.27226
 Alpha  occ. eigenvalues --  -19.23853 -19.22358 -14.58740 -14.50422 -14.47842
 Alpha  occ. eigenvalues --  -14.35412 -10.47881 -10.44568 -10.41732 -10.40798
 Alpha  occ. eigenvalues --  -10.40756 -10.36360 -10.36157 -10.36016 -10.35327
 Alpha  occ. eigenvalues --  -10.33613 -10.31075 -10.29877 -10.29818 -10.29664
 Alpha  occ. eigenvalues --  -10.29286 -10.28793 -10.27831 -10.25794 -10.25547
 Alpha  occ. eigenvalues --  -10.24201  -1.25562  -1.19941  -1.18631  -1.17339
 Alpha  occ. eigenvalues --   -1.15587  -1.15569  -1.13533  -1.10602  -1.07362
 Alpha  occ. eigenvalues --   -1.04241  -0.96629  -0.96019  -0.92496  -0.91534
 Alpha  occ. eigenvalues --   -0.89005  -0.88208  -0.85213  -0.84341  -0.82331
 Alpha  occ. eigenvalues --   -0.80423  -0.77329  -0.76700  -0.76123  -0.73777
 Alpha  occ. eigenvalues --   -0.73068  -0.72878  -0.72430  -0.71011  -0.70506
 Alpha  occ. eigenvalues --   -0.69222  -0.68390  -0.67930  -0.66910  -0.64662
 Alpha  occ. eigenvalues --   -0.64581  -0.64444  -0.63929  -0.62024  -0.60462
 Alpha  occ. eigenvalues --   -0.60244  -0.59374  -0.58688  -0.58246  -0.57606
 Alpha  occ. eigenvalues --   -0.56799  -0.56460  -0.56242  -0.55490  -0.54970
 Alpha  occ. eigenvalues --   -0.54300  -0.53768  -0.53472  -0.53081  -0.52637
 Alpha  occ. eigenvalues --   -0.52427  -0.51995  -0.51363  -0.51123  -0.50705
 Alpha  occ. eigenvalues --   -0.50538  -0.50200  -0.49714  -0.48996  -0.47961
 Alpha  occ. eigenvalues --   -0.47283  -0.46901  -0.46630  -0.46266  -0.46092
 Alpha  occ. eigenvalues --   -0.44963  -0.43712  -0.43517  -0.43404  -0.42639
 Alpha  occ. eigenvalues --   -0.41919  -0.41212  -0.40538  -0.40325  -0.39844
 Alpha  occ. eigenvalues --   -0.38684  -0.37929  -0.37353  -0.35906  -0.34921
 Alpha  occ. eigenvalues --   -0.31969  -0.27585
 Alpha virt. eigenvalues --   -0.14613  -0.13557  -0.11311  -0.10290  -0.09888
 Alpha virt. eigenvalues --   -0.09441  -0.08138  -0.07536  -0.05558  -0.03724
 Alpha virt. eigenvalues --   -0.02836  -0.02042  -0.01620  -0.00938  -0.00406

 Mulliken charges:
               1
     1  N   -0.769324
     2  C   -0.122004
     3  C    0.627002
     4  O   -0.508066
     5  C   -0.318510
     6  C   -0.420381
     7  C    0.643658
     8  O   -0.476855
     9  O   -0.514520
    10  H    0.441990
    11  H    0.420176
    12  H    0.204856
    13  H    0.199091
    14  H    0.229592
    15  H    0.209212
    16  H    0.209478
    17  H    0.408367
    18  H    0.454241
    19  N   -0.563999
    20  C   -0.115102
    21  C    0.637720
    22  O   -0.548335
    23  C   -0.341544
    24  C    0.132385
    25  C   -0.178007
    26  C   -0.209490
    27  C   -0.216662
    28  C   -0.181643
    29  C    0.361768
    30  O   -0.617485
    31  H    0.352457
    32  H    0.205727
    33  H    0.163533
    34  H    0.183054
    35  H    0.151174
    36  H    0.150204
    37  H    0.175139
    38  H    0.154059
    39  H    0.425211
    40  N   -0.626040
    41  C   -0.044912
    42  C    0.600302
    43  O   -0.430040
    44  C   -0.290332
    45  C   -0.274141
    46  C   -0.284358
    47  C   -0.145096
    48  N   -0.707126
    49  O   -0.591695
    50  H    0.428272
    51  H    0.352326
    52  H    0.196865
    53  H    0.178224
    54  H    0.135911
    55  H    0.152095
    56  H    0.140186
    57  H    0.132133
    58  H    0.137698
    59  H    0.142107
    60  H    0.151607
    61  H    0.296929
    62  H    0.310917
 Sum of Mulliken charges =   1.00000

 Dipole moment (field-independent basis, Debye):
    X=             -3.9736    Y=           -436.1762    Z=            610.7365  Tot=            750.5095
 Quadrupole moment (field-independent basis, Debye-Ang):
   XX=           -180.4682   YY=          39469.9699   ZZ=          77493.2380
   XY=            408.2463   XZ=           -500.2415   YZ=         -55444.8877

 Normal termination of Gaussian 16 at Tue May 24 19:13:21 2022.
