 Gaussian 16, Revision C.01,
 Gaussian 16:  ES64L-G16RevC.01  3-Jul-2019

 ----------------------------------------------------------------------
 # B3LYP/6-31G* empiricaldispersion=gd3 guess=read geom=check nosymm in
 tegral(ultrafinegrid)
 ----------------------------------------------------------------------

 -----------------------------------------------------
 Candidate Structure: Conf:34 Charge calc in gas phase
 -----------------------------------------------------
 Structure from the checkpoint file:  "conf-34.chk"
 Charge =  1 Multiplicity = 1

                          Input orientation:
 ---------------------------------------------------------------------
 Center     Atomic      Atomic             Coordinates (Angstroms)
 Number     Number       Type             X           Y           Z
 ---------------------------------------------------------------------
      1          7           0       -0.400711  -91.416364  124.787456
      2          6           0       -0.989807  -91.187522  126.153547
      3          6           0       -0.595208  -89.730804  126.507152
      4          8           0       -0.276477  -88.975218  125.587928
      5          6           0       -2.530618  -91.290824  126.131026
      6          6           0       -3.135890  -92.704128  126.098491
      7          6           0       -3.025097  -93.433313  124.765809
      8          8           0       -2.252589  -93.117384  123.874148
      9          8           0       -3.809257  -94.495487  124.584253
     10          1           0       -4.403671  -94.646540  125.339394
     11          1           0       -0.315665  -90.459014  124.381293
     12          1           0       -0.554052  -91.910528  126.848719
     13          1           0       -2.909271  -90.697358  125.289898
     14          1           0       -2.894312  -90.794744  127.038749
     15          1           0       -4.196653  -92.627433  126.368439
     16          1           0       -2.677456  -93.343174  126.867143
     17          1           0        0.540706  -91.815990  124.827984
     18          1           0       -1.033388  -92.044687  124.226379
     19          7           0       -0.699187  -89.418472  127.806009
     20          6           0       -0.981232  -88.057496  128.270455
     21          6           0       -2.443496  -88.122873  128.800550
     22          8           0       -2.948840  -89.230363  129.052858
     23          6           0        0.057917  -87.615285  129.335695
     24          6           0       -0.242324  -86.243132  129.894075
     25          6           0       -0.693938  -86.081597  131.209066
     26          6           0       -0.201031  -85.111219  129.067545
     27          6           0       -1.153834  -84.850885  131.670321
     28          6           0       -0.682323  -83.880523  129.506655
     29          6           0       -1.206506  -83.762810  130.796879
     30          8           0       -1.809259  -82.617860  131.250063
     31          1           0       -1.182928  -90.090284  128.402924
     32          1           0       -0.925930  -87.389446  127.407769
     33          1           0        0.067843  -88.359360  130.140875
     34          1           0        1.042282  -87.649432  128.853086
     35          1           0       -0.709875  -86.937368  131.879640
     36          1           0        0.175961  -85.196595  128.050472
     37          1           0       -1.509659  -84.729936  132.687878
     38          1           0       -0.695832  -83.027960  128.831866
     39          1           0       -1.733603  -81.933437  130.566272
     40          7           0       -3.070311  -86.953951  128.927351
     41          6           0       -4.392676  -86.764685  129.519343
     42          6           0       -4.724921  -85.267228  129.383426
     43          8           0       -5.962257  -84.974365  129.525792
     44          6           0       -4.415300  -87.213986  131.021607
     45          6           0       -5.317717  -86.397495  131.971291
     46          6           0       -4.641818  -85.087432  132.467391
     47          6           0       -5.511641  -83.821292  132.502012
     48          7           0       -5.513785  -83.121854  131.171630
     49          8           0       -3.783370  -84.454306  129.281723
     50          1           0       -2.572109  -86.073101  128.803584
     51          1           0       -5.133108  -87.342581  128.960392
     52          1           0       -4.701205  -88.269128  131.042888
     53          1           0       -3.383905  -87.167584  131.389270
     54          1           0       -5.551748  -87.021141  132.841509
     55          1           0       -6.266400  -86.181006  131.474039
     56          1           0       -4.263502  -85.243741  133.484026
     57          1           0       -3.758876  -84.867940  131.859144
     58          1           0       -6.553597  -84.049259  132.744991
     59          1           0       -5.132585  -83.112688  133.244125
     60          1           0       -6.063452  -82.261461  131.189555
     61          1           0       -5.871274  -83.833079  130.346543
     62          1           0       -4.553752  -82.902122  130.878931
 ---------------------------------------------------------------------

 SCF Done:  E(RB3LYP) =  -1526.29606676     A.U. after    2 cycles

 Alpha  occ. eigenvalues --  -19.33267 -19.28455 -19.26069 -19.25901 -19.20738
 Alpha  occ. eigenvalues --  -19.17577 -19.17087 -14.57319 -14.49029 -14.48166
 Alpha  occ. eigenvalues --  -14.43616 -10.46746 -10.42665 -10.40135 -10.37597
 Alpha  occ. eigenvalues --  -10.35126 -10.34936 -10.34524 -10.33602 -10.32687
 Alpha  occ. eigenvalues --  -10.32327 -10.29485 -10.28676 -10.27270 -10.27087
 Alpha  occ. eigenvalues --  -10.26945 -10.26769 -10.26765 -10.26296 -10.25564
 Alpha  occ. eigenvalues --  -10.25299  -1.24458  -1.18107  -1.16207  -1.13792
 Alpha  occ. eigenvalues --   -1.12468  -1.11961  -1.11169  -1.05190  -1.04366
 Alpha  occ. eigenvalues --   -1.01985  -1.00123  -0.95121  -0.93549  -0.89345
 Alpha  occ. eigenvalues --   -0.87537  -0.86620  -0.83208  -0.82691  -0.81500
 Alpha  occ. eigenvalues --   -0.79026  -0.77776  -0.75427  -0.74435  -0.72349
 Alpha  occ. eigenvalues --   -0.71748  -0.71473  -0.70414  -0.69885  -0.67435
 Alpha  occ. eigenvalues --   -0.67028  -0.66190  -0.65622  -0.64799  -0.63524
 Alpha  occ. eigenvalues --   -0.63080  -0.62663  -0.62256  -0.60921  -0.60575
 Alpha  occ. eigenvalues --   -0.58631  -0.58321  -0.57250  -0.57178  -0.56194
 Alpha  occ. eigenvalues --   -0.55391  -0.55312  -0.54970  -0.54264  -0.53970
 Alpha  occ. eigenvalues --   -0.53553  -0.52904  -0.52231  -0.51548  -0.51388
 Alpha  occ. eigenvalues --   -0.51096  -0.50325  -0.50245  -0.49991  -0.49332
 Alpha  occ. eigenvalues --   -0.49124  -0.48901  -0.48205  -0.47607  -0.47293
 Alpha  occ. eigenvalues --   -0.45996  -0.45748  -0.45569  -0.44816  -0.44544
 Alpha  occ. eigenvalues --   -0.43887  -0.43251  -0.42256  -0.41744  -0.41468
 Alpha  occ. eigenvalues --   -0.40989  -0.40363  -0.40040  -0.39818  -0.38373
 Alpha  occ. eigenvalues --   -0.34979  -0.33922  -0.33013  -0.32904  -0.31929
 Alpha  occ. eigenvalues --   -0.31414  -0.29450
 Alpha virt. eigenvalues --   -0.13456  -0.11769  -0.08603  -0.08466  -0.07388
 Alpha virt. eigenvalues --   -0.06585  -0.06494  -0.03913  -0.03758  -0.02216
 Alpha virt. eigenvalues --   -0.02083  -0.01437  -0.00783   0.00573   0.01213

 Mulliken charges:
               1
     1  N   -0.770842
     2  C   -0.121560
     3  C    0.625510
     4  O   -0.514677
     5  C   -0.318666
     6  C   -0.420083
     7  C    0.641342
     8  O   -0.476509
     9  O   -0.517920
    10  H    0.440100
    11  H    0.418878
    12  H    0.202657
    13  H    0.195859
    14  H    0.232757
    15  H    0.207173
    16  H    0.207868
    17  H    0.405694
    18  H    0.451398
    19  N   -0.565821
    20  C   -0.108309
    21  C    0.632365
    22  O   -0.572174
    23  C   -0.340146
    24  C    0.148752
    25  C   -0.183230
    26  C   -0.221506
    27  C   -0.170810
    28  C   -0.154916
    29  C    0.383930
    30  O   -0.659494
    31  H    0.352411
    32  H    0.199815
    33  H    0.156681
    34  H    0.173440
    35  H    0.137971
    36  H    0.140211
    37  H    0.149418
    38  H    0.139675
    39  H    0.417048
    40  N   -0.617969
    41  C   -0.001331
    42  C    0.579767
    43  O   -0.619550
    44  C   -0.291549
    45  C   -0.283050
    46  C   -0.314650
    47  C   -0.168582
    48  N   -0.770178
    49  O   -0.579529
    50  H    0.381947
    51  H    0.171413
    52  H    0.164911
    53  H    0.147290
    54  H    0.144999
    55  H    0.180277
    56  H    0.160102
    57  H    0.190982
    58  H    0.190070
    59  H    0.181398
    60  H    0.373136
    61  H    0.443696
    62  H    0.392109
 Sum of Mulliken charges =   1.00000

 Dipole moment (field-independent basis, Debye):
    X=            -10.7990    Y=           -428.7678    Z=            615.2888  Tot=            750.0258
 Quadrupole moment (field-independent basis, Debye-Ang):
   XX=           -127.3331   YY=          38212.1952   ZZ=          78679.7604
   XY=            939.9367   XZ=          -1412.8829   YZ=         -54865.6828

 Normal termination of Gaussian 16 at Tue May 24 19:13:28 2022.
