 Gaussian 16, Revision C.01,
 Gaussian 16:  ES64L-G16RevC.01  3-Jul-2019

 ----------------------------------------------------------------------
 # B3LYP/6-31G* empiricaldispersion=gd3 guess=read geom=check nosymm in
 tegral(ultrafinegrid)
 ----------------------------------------------------------------------

 ------------------------------------------------------
 Candidate Structure: Conf:978 Charge calc in gas phase
 ------------------------------------------------------
 Structure from the checkpoint file:  "conf-978.chk"
 Charge =  1 Multiplicity = 1

                          Input orientation:
 ---------------------------------------------------------------------
 Center     Atomic      Atomic             Coordinates (Angstroms)
 Number     Number       Type             X           Y           Z
 ---------------------------------------------------------------------
      1          7           0        0.420701  -88.741344  128.078319
      2          6           0        0.486265  -89.761821  129.192976
      3          6           0       -0.824485  -89.573845  129.990839
      4          8           0       -0.828670  -88.851291  130.971234
      5          6           0        0.773437  -91.183558  128.684261
      6          6           0        1.882934  -91.324688  127.611463
      7          6           0        3.130932  -90.527021  127.923397
      8          8           0        3.163942  -89.304175  127.916460
      9          8           0        4.187937  -91.284726  128.218405
     10          1           0        4.947574  -90.695376  128.397431
     11          1           0        1.354078  -88.684770  127.637770
     12          1           0        1.292749  -89.422184  129.843267
     13          1           0       -0.128000  -91.641159  128.263144
     14          1           0        1.033974  -91.780608  129.564702
     15          1           0        1.514402  -90.959498  126.645771
     16          1           0        2.129012  -92.381476  127.490060
     17          1           0       -0.337716  -88.950742  127.406178
     18          1           0        0.133180  -87.780387  128.438832
     19          7           0       -1.957844  -90.141541  129.444103
     20          6           0       -3.148390  -89.284362  129.410185
     21          6           0       -2.897092  -88.282360  128.256724
     22          8           0       -2.220116  -88.616077  127.269321
     23          6           0       -4.469872  -90.056909  129.244551
     24          6           0       -5.619129  -89.069933  129.228149
     25          6           0       -5.943170  -88.345584  130.387474
     26          6           0       -6.282757  -88.743257  128.042102
     27          6           0       -6.880185  -87.316751  130.361961
     28          6           0       -7.233667  -87.723460  128.000849
     29          6           0       -7.529968  -86.998777  129.160507
     30          8           0       -8.429893  -85.977164  129.194895
     31          1           0       -1.817560  -90.580332  128.539905
     32          1           0       -3.165194  -88.744503  130.358238
     33          1           0       -4.444252  -90.635008  128.313049
     34          1           0       -4.553090  -90.769319  130.073242
     35          1           0       -5.455360  -88.591460  131.328887
     36          1           0       -6.045367  -89.280714  127.127390
     37          1           0       -7.141196  -86.765220  131.259501
     38          1           0       -7.739914  -87.488036  127.067121
     39          1           0       -8.867209  -85.894579  128.332776
     40          7           0       -3.374329  -87.042321  128.421218
     41          6           0       -2.847206  -85.918433  127.664451
     42          6           0       -1.316604  -85.719794  127.880189
     43          8           0       -0.767428  -84.820040  127.248176
     44          6           0       -3.607269  -84.619688  128.013387
     45          6           0       -3.779377  -84.282779  129.515792
     46          6           0       -2.540288  -84.427633  130.425503
     47          6           0       -1.349489  -83.534502  130.022620
     48          7           0       -0.046073  -84.296381  130.160026
     49          8           0       -0.737198  -86.427718  128.817311
     50          1           0       -3.943070  -86.861868  129.237434
     51          1           0       -2.976857  -86.114985  126.596173
     52          1           0       -3.083326  -83.814852  127.490588
     53          1           0       -4.610254  -84.674962  127.574745
     54          1           0       -4.570302  -84.912246  129.946344
     55          1           0       -4.168327  -83.258960  129.581349
     56          1           0       -2.834095  -84.198481  131.455896
     57          1           0       -2.218315  -85.474173  130.418486
     58          1           0       -1.390335  -83.244389  128.973544
     59          1           0       -1.275471  -82.633079  130.635675
     60          1           0       -0.137349  -85.243721  129.617399
     61          1           0        0.170656  -84.499511  131.139433
     62          1           0        0.733778  -83.771814  129.755916
 ---------------------------------------------------------------------

 SCF Done:  E(RB3LYP) =  -1526.30776695     A.U. after    3 cycles

 Alpha  occ. eigenvalues --  -19.32012 -19.26796 -19.25910 -19.23892 -19.22647
 Alpha  occ. eigenvalues --  -19.21746 -19.20006 -14.55096 -14.53361 -14.46837
 Alpha  occ. eigenvalues --  -14.46193 -10.44926 -10.40904 -10.39204 -10.38253
 Alpha  occ. eigenvalues --  -10.37422 -10.35723 -10.33701 -10.33515 -10.33501
 Alpha  occ. eigenvalues --  -10.32905 -10.32315 -10.30315 -10.29322 -10.29049
 Alpha  occ. eigenvalues --  -10.28642 -10.27967 -10.27874 -10.27758 -10.27425
 Alpha  occ. eigenvalues --  -10.27209  -1.23163  -1.16068  -1.14682  -1.14138
 Alpha  occ. eigenvalues --   -1.14065  -1.13754  -1.09675  -1.09020  -1.05013
 Alpha  occ. eigenvalues --   -1.03703  -1.02845  -0.94288  -0.93244  -0.91285
 Alpha  occ. eigenvalues --   -0.88844  -0.86157  -0.85773  -0.83390  -0.81890
 Alpha  occ. eigenvalues --   -0.80439  -0.77967  -0.75719  -0.74313  -0.72030
 Alpha  occ. eigenvalues --   -0.70986  -0.70855  -0.70141  -0.69339  -0.68837
 Alpha  occ. eigenvalues --   -0.68298  -0.67393  -0.67169  -0.66080  -0.64163
 Alpha  occ. eigenvalues --   -0.62853  -0.62658  -0.61906  -0.61318  -0.60463
 Alpha  occ. eigenvalues --   -0.60147  -0.59012  -0.58499  -0.57641  -0.57103
 Alpha  occ. eigenvalues --   -0.56523  -0.55930  -0.55675  -0.55259  -0.54713
 Alpha  occ. eigenvalues --   -0.54273  -0.53451  -0.52927  -0.52479  -0.52014
 Alpha  occ. eigenvalues --   -0.51472  -0.51239  -0.50871  -0.50469  -0.50245
 Alpha  occ. eigenvalues --   -0.49730  -0.49380  -0.49019  -0.48760  -0.48559
 Alpha  occ. eigenvalues --   -0.48033  -0.47842  -0.47634  -0.46206  -0.45419
 Alpha  occ. eigenvalues --   -0.44195  -0.44104  -0.43957  -0.43716  -0.42807
 Alpha  occ. eigenvalues --   -0.42123  -0.41238  -0.40564  -0.38606  -0.37873
 Alpha  occ. eigenvalues --   -0.37382  -0.36774  -0.36348  -0.35346  -0.33903
 Alpha  occ. eigenvalues --   -0.32924  -0.30270
 Alpha virt. eigenvalues --   -0.12269  -0.11694  -0.09289  -0.09013  -0.07991
 Alpha virt. eigenvalues --   -0.07652  -0.06771  -0.04584  -0.03036  -0.02868
 Alpha virt. eigenvalues --   -0.01552  -0.00735  -0.00624   0.00192   0.00688

 Mulliken charges:
               1
     1  N   -0.814169
     2  C   -0.093911
     3  C    0.596096
     4  O   -0.473965
     5  C   -0.307401
     6  C   -0.373735
     7  C    0.603885
     8  O   -0.483469
     9  O   -0.528879
    10  H    0.434129
    11  H    0.415117
    12  H    0.212608
    13  H    0.177715
    14  H    0.206906
    15  H    0.191405
    16  H    0.214469
    17  H    0.414580
    18  H    0.451817
    19  N   -0.569528
    20  C   -0.088884
    21  C    0.641512
    22  O   -0.594968
    23  C   -0.352018
    24  C    0.145082
    25  C   -0.221658
    26  C   -0.178908
    27  C   -0.164952
    28  C   -0.191202
    29  C    0.350438
    30  O   -0.631531
    31  H    0.328191
    32  H    0.192736
    33  H    0.159648
    34  H    0.181809
    35  H    0.143128
    36  H    0.144820
    37  H    0.158259
    38  H    0.140278
    39  H    0.417744
    40  N   -0.583413
    41  C   -0.028032
    42  C    0.592311
    43  O   -0.518236
    44  C   -0.314021
    45  C   -0.301797
    46  C   -0.319303
    47  C   -0.193376
    48  N   -0.757766
    49  O   -0.679911
    50  H    0.356211
    51  H    0.197997
    52  H    0.183840
    53  H    0.169622
    54  H    0.160618
    55  H    0.167639
    56  H    0.169586
    57  H    0.184310
    58  H    0.233438
    59  H    0.196662
    60  H    0.439645
    61  H    0.390201
    62  H    0.400579
 Sum of Mulliken charges =   1.00000

 Dipole moment (field-independent basis, Debye):
    X=             -3.4085    Y=           -420.1271    Z=            620.6725  Tot=            749.5017
 Quadrupole moment (field-independent basis, Debye-Ang):
   XX=           -108.5148   YY=          36628.7123   ZZ=          80029.5991
   XY=            277.0662   XZ=           -430.2306   YZ=         -54263.9716

 Normal termination of Gaussian 16 at Tue May 24 19:13:58 2022.
