 Gaussian 16, Revision C.01,
 Gaussian 16:  ES64L-G16RevC.01  3-Jul-2019

 ----------------------------------------------------------------------
 # B3LYP/6-31G* empiricaldispersion=gd3 guess=read geom=check nosymm in
 tegral(ultrafinegrid)
 ----------------------------------------------------------------------

 ------------------------------------------------------
 Candidate Structure: Conf:123 Charge calc in gas phase
 ------------------------------------------------------
 Structure from the checkpoint file:  "conf-123.chk"
 Charge =  1 Multiplicity = 1

                          Input orientation:
 ---------------------------------------------------------------------
 Center     Atomic      Atomic             Coordinates (Angstroms)
 Number     Number       Type             X           Y           Z
 ---------------------------------------------------------------------
      1          7           0       -5.573674  -89.147855  129.865727
      2          6           0       -4.649431  -89.799138  128.907141
      3          6           0       -3.282951  -89.092927  128.863064
      4          8           0       -2.629302  -89.091459  127.808130
      5          6           0       -4.469965  -91.337026  129.078019
      6          6           0       -4.636831  -92.115009  127.752257
      7          6           0       -3.670548  -91.644705  126.690930
      8          8           0       -3.984042  -90.977016  125.716616
      9          8           0       -2.417139  -92.027169  126.949953
     10          1           0       -1.827343  -91.625012  126.285160
     11          1           0       -6.527098  -89.440557  129.651678
     12          1           0       -5.076048  -89.598967  127.923828
     13          1           0       -5.230591  -91.705869  129.775439
     14          1           0       -3.495506  -91.569351  129.520294
     15          1           0       -5.647161  -91.982439  127.356710
     16          1           0       -4.468435  -93.180774  127.937398
     17          1           0       -5.405734  -89.467592  130.821278
     18          1           0       -5.544453  -87.343678  129.493724
     19          7           0       -2.844703  -88.508395  130.002509
     20          6           0       -1.662593  -87.619545  130.067499
     21          6           0       -2.207043  -86.234307  129.634810
     22          8           0       -2.556462  -85.377260  130.421954
     23          6           0       -1.047836  -87.602897  131.470141
     24          6           0        0.288375  -86.890332  131.475744
     25          6           0        0.380764  -85.517271  131.730197
     26          6           0        1.466290  -87.592990  131.180982
     27          6           0        1.611768  -84.863633  131.697912
     28          6           0        2.700602  -86.954250  131.142841
     29          6           0        2.777289  -85.580394  131.403835
     30          8           0        4.012771  -85.006568  131.354946
     31          1           0       -3.510677  -88.375877  130.753516
     32          1           0       -0.939578  -88.000927  129.342480
     33          1           0       -1.749595  -87.110467  132.152742
     34          1           0       -0.928744  -88.641442  131.799992
     35          1           0       -0.520961  -84.952217  131.944849
     36          1           0        1.419661  -88.663525  130.989706
     37          1           0        1.666697  -83.796605  131.904298
     38          1           0        3.614350  -87.497890  130.926061
     39          1           0        3.944166  -84.066350  131.583360
     40          7           0       -2.406585  -86.156999  128.266761
     41          6           0       -3.594172  -85.501449  127.695664
     42          6           0       -4.731056  -86.488199  127.999783
     43          8           0       -5.106841  -87.353355  127.203713
     44          6           0       -3.324047  -85.266781  126.194988
     45          6           0       -4.534313  -85.159044  125.228478
     46          6           0       -4.394133  -86.039934  123.965723
     47          6           0       -4.717905  -87.534059  124.104056
     48          7           0       -3.800065  -88.271651  125.046493
     49          8           0       -5.146403  -86.447908  129.248583
     50          1           0       -2.152919  -87.011275  127.776448
     51          1           0       -3.768707  -84.574786  128.245558
     52          1           0       -2.701582  -84.370004  126.122910
     53          1           0       -2.662334  -86.073955  125.857550
     54          1           0       -4.633827  -84.121166  124.896337
     55          1           0       -5.473334  -85.405762  125.731833
     56          1           0       -5.084089  -85.670735  123.197670
     57          1           0       -3.387385  -85.922723  123.539407
     58          1           0       -5.722500  -87.684725  124.506261
     59          1           0       -4.650703  -88.031373  123.133271
     60          1           0       -4.014380  -87.949153  126.015999
     61          1           0       -2.812542  -88.103605  124.842255
     62          1           0       -3.940986  -89.300009  125.066406
 ---------------------------------------------------------------------

 SCF Done:  E(RB3LYP) =  -1526.31297700     A.U. after    2 cycles

 Alpha  occ. eigenvalues --  -19.31707 -19.30160 -19.27018 -19.26788 -19.24780
 Alpha  occ. eigenvalues --  -19.23961 -19.22472 -14.55694 -14.49033 -14.47747
 Alpha  occ. eigenvalues --  -14.46486 -10.44842 -10.44525 -10.41825 -10.39140
 Alpha  occ. eigenvalues --  -10.37117 -10.35660 -10.35455 -10.34020 -10.32259
 Alpha  occ. eigenvalues --  -10.31988 -10.31937 -10.31372 -10.31191 -10.30474
 Alpha  occ. eigenvalues --  -10.28029 -10.26088 -10.25870 -10.25533 -10.25313
 Alpha  occ. eigenvalues --  -10.24928  -1.22935  -1.22589  -1.16385  -1.14251
 Alpha  occ. eigenvalues --   -1.13984  -1.13596  -1.12078  -1.10918  -1.05478
 Alpha  occ. eigenvalues --   -1.03882  -1.02870  -0.92713  -0.92307  -0.91994
 Alpha  occ. eigenvalues --   -0.89173  -0.87527  -0.83922  -0.83245  -0.81248
 Alpha  occ. eigenvalues --   -0.80564  -0.77715  -0.76973  -0.74729  -0.72819
 Alpha  occ. eigenvalues --   -0.72002  -0.71722  -0.70625  -0.69808  -0.68830
 Alpha  occ. eigenvalues --   -0.68768  -0.68292  -0.66145  -0.65487  -0.63661
 Alpha  occ. eigenvalues --   -0.62239  -0.61941  -0.61574  -0.61074  -0.60660
 Alpha  occ. eigenvalues --   -0.60461  -0.60295  -0.59299  -0.58663  -0.58223
 Alpha  occ. eigenvalues --   -0.57857  -0.57119  -0.55735  -0.55047  -0.54931
 Alpha  occ. eigenvalues --   -0.54496  -0.53875  -0.53382  -0.52900  -0.52268
 Alpha  occ. eigenvalues --   -0.51902  -0.51528  -0.50846  -0.50449  -0.50229
 Alpha  occ. eigenvalues --   -0.49536  -0.49090  -0.48904  -0.48334  -0.48201
 Alpha  occ. eigenvalues --   -0.47763  -0.47409  -0.46666  -0.46563  -0.46402
 Alpha  occ. eigenvalues --   -0.45428  -0.45226  -0.44209  -0.43949  -0.43752
 Alpha  occ. eigenvalues --   -0.42641  -0.41226  -0.41039  -0.40273  -0.40082
 Alpha  occ. eigenvalues --   -0.39491  -0.39071  -0.38072  -0.36408  -0.34709
 Alpha  occ. eigenvalues --   -0.31679  -0.28304
 Alpha virt. eigenvalues --   -0.13620  -0.12054  -0.11001  -0.08094  -0.07667
 Alpha virt. eigenvalues --   -0.06734  -0.06103  -0.05494  -0.03705  -0.02732
 Alpha virt. eigenvalues --   -0.01252  -0.00945  -0.00215  -0.00021   0.00909

 Mulliken charges:
               1
     1  N   -0.792053
     2  C   -0.068295
     3  C    0.624197
     4  O   -0.584831
     5  C   -0.301619
     6  C   -0.347218
     7  C    0.616987
     8  O   -0.514957
     9  O   -0.526199
    10  H    0.422982
    11  H    0.350264
    12  H    0.196984
    13  H    0.171390
    14  H    0.193014
    15  H    0.184683
    16  H    0.204554
    17  H    0.333523
    18  H    0.456871
    19  N   -0.589562
    20  C   -0.075363
    21  C    0.633964
    22  O   -0.476668
    23  C   -0.370070
    24  C    0.141728
    25  C   -0.186036
    26  C   -0.189789
    27  C   -0.194950
    28  C   -0.156833
    29  C    0.354825
    30  O   -0.633720
    31  H    0.349248
    32  H    0.189200
    33  H    0.171850
    34  H    0.158903
    35  H    0.161334
    36  H    0.123927
    37  H    0.132755
    38  H    0.151025
    39  H    0.414195
    40  N   -0.616758
    41  C   -0.033881
    42  C    0.603981
    43  O   -0.540767
    44  C   -0.293917
    45  C   -0.274304
    46  C   -0.301212
    47  C   -0.183994
    48  N   -0.791931
    49  O   -0.559174
    50  H    0.345186
    51  H    0.218338
    52  H    0.196588
    53  H    0.109335
    54  H    0.177719
    55  H    0.168574
    56  H    0.189965
    57  H    0.161674
    58  H    0.213027
    59  H    0.203138
    60  H    0.445944
    61  H    0.386492
    62  H    0.445736
 Sum of Mulliken charges =   1.00000

 Dipole moment (field-independent basis, Debye):
    X=            -18.9376    Y=           -425.4757    Z=            609.7587  Tot=            743.7700
 Quadrupole moment (field-independent basis, Debye-Ang):
   XX=            -85.5766   YY=          37545.4041   ZZ=          77269.1571
   XY=           1691.9508   XZ=          -2405.4946   YZ=         -54026.3189

 Normal termination of Gaussian 16 at Tue May 24 19:13:30 2022.
