 Gaussian 16, Revision C.01,
 Gaussian 16:  ES64L-G16RevC.01  3-Jul-2019

 ----------------------------------------------------------------------
 # B3LYP/6-31G* empiricaldispersion=gd3 guess=read geom=check nosymm in
 tegral(ultrafinegrid)
 ----------------------------------------------------------------------

 ------------------------------------------------------
 Candidate Structure: Conf:879 Charge calc in gas phase
 ------------------------------------------------------
 Structure from the checkpoint file:  "conf-879.chk"
 Charge =  1 Multiplicity = 1

                          Input orientation:
 ---------------------------------------------------------------------
 Center     Atomic      Atomic             Coordinates (Angstroms)
 Number     Number       Type             X           Y           Z
 ---------------------------------------------------------------------
      1          7           0       -1.613174  -84.178722  127.751712
      2          6           0       -2.855133  -84.920733  127.492762
      3          6           0       -3.158516  -85.989694  128.548954
      4          8           0       -4.128418  -86.749023  128.339489
      5          6           0       -4.144530  -84.105142  127.171985
      6          6           0       -4.540227  -84.187901  125.685050
      7          6           0       -4.547095  -85.589018  125.087880
      8          8           0       -4.225621  -85.787785  123.922136
      9          8           0       -4.911441  -86.633496  125.830928
     10          1           0       -4.843923  -86.521018  126.824359
     11          1           0       -1.394835  -83.590729  126.947788
     12          1           0       -2.618866  -85.530367  126.614252
     13          1           0       -3.985666  -83.054044  127.434806
     14          1           0       -4.972601  -84.455802  127.795525
     15          1           0       -3.863190  -83.601806  125.057003
     16          1           0       -5.543504  -83.766365  125.541719
     17          1           0       -1.715246  -83.540559  128.541997
     18          1           0       -0.359835  -85.697288  127.443780
     19          7           0       -2.357172  -86.123168  129.615604
     20          6           0       -2.356571  -87.341145  130.460587
     21          6           0       -1.295972  -88.249689  129.788313
     22          8           0       -0.157019  -88.346602  130.200720
     23          6           0       -2.029002  -87.026156  131.923939
     24          6           0       -2.280696  -88.225362  132.814731
     25          6           0       -3.548303  -88.440148  133.367907
     26          6           0       -1.272694  -89.165427  133.077277
     27          6           0       -3.811337  -89.555164  134.162178
     28          6           0       -1.520047  -90.281607  133.868695
     29          6           0       -2.793308  -90.481915  134.415881
     30          8           0       -2.973611  -91.593910  135.183034
     31          1           0       -1.499108  -85.582611  129.622053
     32          1           0       -3.355081  -87.776147  130.382664
     33          1           0       -0.983026  -86.707772  131.989741
     34          1           0       -2.657560  -86.183185  132.232628
     35          1           0       -4.345366  -87.721198  133.188083
     36          1           0       -0.286024  -89.020600  132.648755
     37          1           0       -4.800657  -89.700078  134.591452
     38          1           0       -0.740773  -91.006484  134.080323
     39          1           0       -3.879296  -91.608313  135.529900
     40          7           0       -1.717404  -88.792091  128.583737
     41          6           0       -0.765180  -88.911221  127.471638
     42          6           0       -0.711083  -87.509412  126.846332
     43          8           0       -1.248495  -87.180041  125.790097
     44          6           0       -1.102457  -90.043230  126.471716
     45          6           0       -2.558070  -90.548023  126.446010
     46          6           0       -3.662443  -89.627620  125.889382
     47          6           0       -3.690440  -89.471268  124.359914
     48          7           0       -2.940255  -88.246232  123.883079
     49          8           0       -0.118482  -86.639547  127.652461
     50          1           0       -2.673864  -88.574244  128.325027
     51          1           0        0.207787  -89.093321  127.933732
     52          1           0       -0.771165  -89.734593  125.472276
     53          1           0       -0.478232  -90.901893  126.737788
     54          1           0       -2.833173  -90.827615  127.468844
     55          1           0       -2.572937  -91.484439  125.873832
     56          1           0       -4.627311  -90.060916  126.174301
     57          1           0       -3.646441  -88.635010  126.349088
     58          1           0       -3.245132  -90.339700  123.867228
     59          1           0       -4.711728  -89.356845  123.992634
     60          1           0       -2.162504  -87.999216  124.530455
     61          1           0       -3.560378  -87.395351  123.855182
     62          1           0       -2.562281  -88.370936  122.940564
 ---------------------------------------------------------------------

 SCF Done:  E(RB3LYP) =  -1526.31872105     A.U. after    1 cycles

 Alpha  occ. eigenvalues --  -19.31650 -19.30653 -19.28447 -19.26525 -19.26523
 Alpha  occ. eigenvalues --  -19.24016 -19.23098 -14.55491 -14.49993 -14.48015
 Alpha  occ. eigenvalues --  -14.47224 -10.45643 -10.44845 -10.43097 -10.39846
 Alpha  occ. eigenvalues --  -10.37092 -10.36816 -10.35701 -10.34532 -10.32627
 Alpha  occ. eigenvalues --  -10.32596 -10.31492 -10.31435 -10.30884 -10.30342
 Alpha  occ. eigenvalues --  -10.28193 -10.26190 -10.26110 -10.25571 -10.25405
 Alpha  occ. eigenvalues --  -10.24770  -1.23635  -1.22300  -1.17963  -1.15083
 Alpha  occ. eigenvalues --   -1.14745  -1.13536  -1.12137  -1.10583  -1.06521
 Alpha  occ. eigenvalues --   -1.04326  -1.03561  -0.92682  -0.92386  -0.92261
 Alpha  occ. eigenvalues --   -0.89395  -0.87801  -0.84315  -0.83730  -0.81325
 Alpha  occ. eigenvalues --   -0.80978  -0.78081  -0.77001  -0.75366  -0.73841
 Alpha  occ. eigenvalues --   -0.73531  -0.71940  -0.70530  -0.69542  -0.69218
 Alpha  occ. eigenvalues --   -0.68842  -0.68266  -0.66850  -0.65934  -0.64587
 Alpha  occ. eigenvalues --   -0.63661  -0.63080  -0.62257  -0.61517  -0.60800
 Alpha  occ. eigenvalues --   -0.60667  -0.60127  -0.59895  -0.59297  -0.58716
 Alpha  occ. eigenvalues --   -0.58026  -0.56799  -0.56005  -0.55491  -0.55284
 Alpha  occ. eigenvalues --   -0.54773  -0.54313  -0.53796  -0.53438  -0.53011
 Alpha  occ. eigenvalues --   -0.52723  -0.51914  -0.51209  -0.50603  -0.50308
 Alpha  occ. eigenvalues --   -0.49919  -0.49548  -0.49423  -0.48902  -0.48485
 Alpha  occ. eigenvalues --   -0.47953  -0.47092  -0.46810  -0.46416  -0.45682
 Alpha  occ. eigenvalues --   -0.45392  -0.44941  -0.44898  -0.44165  -0.43700
 Alpha  occ. eigenvalues --   -0.42768  -0.42413  -0.41432  -0.40546  -0.40315
 Alpha  occ. eigenvalues --   -0.40133  -0.39559  -0.39322  -0.36981  -0.35598
 Alpha  occ. eigenvalues --   -0.31720  -0.28385
 Alpha virt. eigenvalues --   -0.14988  -0.12466  -0.11520  -0.08101  -0.07329
 Alpha virt. eigenvalues --   -0.06762  -0.06443  -0.05611  -0.03535  -0.02072
 Alpha virt. eigenvalues --   -0.01830  -0.01432  -0.00742  -0.00087   0.00355

 Mulliken charges:
               1
     1  N   -0.787363
     2  C   -0.100403
     3  C    0.630950
     4  O   -0.578674
     5  C   -0.326738
     6  C   -0.364265
     7  C    0.603848
     8  O   -0.493018
     9  O   -0.603265
    10  H    0.470412
    11  H    0.347980
    12  H    0.206827
    13  H    0.180026
    14  H    0.195428
    15  H    0.194003
    16  H    0.215964
    17  H    0.338533
    18  H    0.448040
    19  N   -0.583918
    20  C   -0.084533
    21  C    0.640081
    22  O   -0.472915
    23  C   -0.363195
    24  C    0.139952
    25  C   -0.189863
    26  C   -0.186881
    27  C   -0.191435
    28  C   -0.159927
    29  C    0.354938
    30  O   -0.632421
    31  H    0.364980
    32  H    0.201898
    33  H    0.173917
    34  H    0.160240
    35  H    0.125847
    36  H    0.161167
    37  H    0.130658
    38  H    0.154147
    39  H    0.413536
    40  N   -0.631174
    41  C   -0.030863
    42  C    0.597054
    43  O   -0.523691
    44  C   -0.296995
    45  C   -0.292687
    46  C   -0.310729
    47  C   -0.171156
    48  N   -0.810651
    49  O   -0.557817
    50  H    0.359872
    51  H    0.228674
    52  H    0.139525
    53  H    0.186748
    54  H    0.181302
    55  H    0.162163
    56  H    0.187462
    57  H    0.162834
    58  H    0.195978
    59  H    0.212166
    60  H    0.442565
    61  H    0.440448
    62  H    0.394416
 Sum of Mulliken charges =   1.00000

 Dipole moment (field-independent basis, Debye):
    X=            -15.1073    Y=           -417.2758    Z=            607.3665  Tot=            737.0491
 Quadrupole moment (field-independent basis, Debye-Ang):
   XX=           -125.7741   YY=          36115.6893   ZZ=          76663.5264
   XY=           1318.6759   XZ=          -1928.7799   YZ=         -52749.6179

 Normal termination of Gaussian 16 at Tue May 24 19:13:25 2022.
