 Gaussian 16, Revision C.01,
 Gaussian 16:  ES64L-G16RevC.01  3-Jul-2019

 ----------------------------------------------------------------------
 # B3LYP/6-31G* empiricaldispersion=gd3 guess=read geom=check nosymm in
 tegral(ultrafinegrid)
 ----------------------------------------------------------------------

 ----------------------------------------------------
 Candidate Structure: Conf:3 Charge calc in gas phase
 ----------------------------------------------------
 Structure from the checkpoint file:  "conf-3.chk"
 Charge =  1 Multiplicity = 1

                          Input orientation:
 ---------------------------------------------------------------------
 Center     Atomic      Atomic             Coordinates (Angstroms)
 Number     Number       Type             X           Y           Z
 ---------------------------------------------------------------------
      1          7           0      -97.769550  -14.274082    5.536260
      2          6           0      -96.384928  -14.198267    6.159755
      3          6           0      -95.612876  -12.993063    5.571939
      4          8           0      -95.684994  -11.908603    6.140360
      5          6           0      -95.724144  -15.588362    6.077989
      6          6           0      -96.648121  -16.663987    6.566228
      7          6           0      -97.181391  -17.677090    5.797143
      8          6           0      -97.192261  -16.821837    7.895837
      9          6           0      -98.045512  -17.957961    7.859417
     10          6           0      -97.035082  -16.124159    9.108068
     11          7           0      -98.015793  -18.453381    6.568054
     12          6           0      -98.744844  -18.404396    8.985577
     13          6           0      -97.727624  -16.563902   10.227878
     14          6           0      -98.575286  -17.690701   10.165442
     15          1           0      -98.229430  -15.119149    5.909735
     16          1           0      -96.572517  -13.931702    7.201067
     17          1           0      -95.413866  -15.808112    5.051247
     18          1           0      -94.813977  -15.532842    6.688304
     19          1           0      -96.997923  -17.910400    4.756581
     20          1           0      -98.488158  -19.288057    6.254585
     21          1           0      -96.367049  -15.268986    9.177101
     22          1           0      -99.391084  -19.276235    8.941098
     23          1           0      -97.612014  -16.039340   11.171488
     24          1           0      -99.100935  -18.010175   11.060102
     25          1           0      -98.316462  -13.435224    5.753242
     26          1           0      -97.754070  -14.335082    4.496640
     27          7           0      -94.922120  -13.198404    4.423936
     28          6           0      -93.905105  -12.240005    3.971122
     29          6           0      -94.495819  -10.849730    3.642639
     30          8           0      -93.960768   -9.820605    3.997517
     31          6           0      -92.679772  -12.115703    4.917914
     32          6           0      -91.468026  -11.571260    4.125614
     33          6           0      -92.342099  -13.467081    5.563842
     34          6           0      -90.366272  -10.992888    5.019017
     35          1           0      -94.876703  -14.136903    3.997956
     36          1           0      -93.539295  -12.651445    3.023771
     37          1           0      -92.940567  -11.396561    5.700547
     38          1           0      -91.061615  -12.385387    3.505525
     39          1           0      -91.799553  -10.785793    3.440428
     40          1           0      -91.397150  -13.401050    6.109595
     41          1           0      -93.103912  -13.788924    6.280457
     42          1           0      -92.234098  -14.255757    4.806644
     43          1           0      -89.965341  -11.734568    5.718590
     44          1           0      -90.751424  -10.150299    5.604052
     45          1           0      -89.529885  -10.626550    4.414604
     46          7           0      -95.678969  -10.747577    2.884298
     47          6           0      -96.368173  -11.741509    2.045486
     48          6           0      -97.304829  -12.555857    2.944984
     49          8           0      -97.669102  -13.705640    2.746039
     50          6           0      -95.466369  -12.558276    1.099099
     51          6           0      -96.169880  -13.300827   -0.063620
     52          6           0      -96.306119  -14.827936    0.099927
     53          7           0      -95.041956  -15.501495    0.400903
     54          6           0      -94.611678  -15.809560    1.670549
     55          7           0      -95.247314  -15.556927    2.779146
     56          7           0      -93.390992  -16.447476    1.713877
     57          8           0      -97.776285  -11.896654    4.010006
     58          1           0      -97.214658  -11.095437    4.139085
     59          1           0      -95.797245   -9.781017    2.596839
     60          1           0      -97.051437  -11.150962    1.418892
     61          1           0      -94.759910  -11.831950    0.684352
     62          1           0      -94.877437  -13.268942    1.675103
     63          1           0      -95.595574  -13.114004   -0.977615
     64          1           0      -97.171774  -12.889650   -0.244934
     65          1           0      -97.047878  -15.064233    0.865284
     66          1           0      -96.685241  -15.248466   -0.836338
     67          1           0      -94.608065  -16.014660   -0.354268
     68          1           0      -96.188496  -15.226975    2.578652
     69          1           0      -92.686720  -16.175904    1.040200
     70          1           0      -93.038220  -16.604550    2.648381
 ---------------------------------------------------------------------

 SCF Done:  E(RB3LYP) =  -1582.22703697     A.U. after    1 cycles

 Alpha  occ. eigenvalues --  -19.32897 -19.28443 -19.23684 -19.22868 -14.57527
 Alpha  occ. eigenvalues --  -14.48040 -14.47925 -14.47203 -14.46461 -14.45252
 Alpha  occ. eigenvalues --  -14.39825 -10.46273 -10.41094 -10.40379 -10.40063
 Alpha  occ. eigenvalues --  -10.37904 -10.37476 -10.34269 -10.32908 -10.32424
 Alpha  occ. eigenvalues --  -10.31355 -10.31042 -10.30804 -10.29908 -10.28945
 Alpha  occ. eigenvalues --  -10.28175 -10.27795 -10.27791 -10.27768 -10.27140
 Alpha  occ. eigenvalues --  -10.26872 -10.26354 -10.25721 -10.24046  -1.24510
 Alpha  occ. eigenvalues --   -1.16100  -1.15803  -1.14997  -1.12156  -1.08997
 Alpha  occ. eigenvalues --   -1.07814  -1.04482  -1.03388  -0.99766  -0.95288
 Alpha  occ. eigenvalues --   -0.93289  -0.92114  -0.90973  -0.89865  -0.87108
 Alpha  occ. eigenvalues --   -0.85633  -0.82993  -0.82640  -0.81579  -0.79883
 Alpha  occ. eigenvalues --   -0.79336  -0.77905  -0.74703  -0.73000  -0.72768
 Alpha  occ. eigenvalues --   -0.71660  -0.71521  -0.70975  -0.70247  -0.69043
 Alpha  occ. eigenvalues --   -0.68539  -0.68243  -0.66539  -0.66307  -0.65252
 Alpha  occ. eigenvalues --   -0.64234  -0.64075  -0.63605  -0.63213  -0.62252
 Alpha  occ. eigenvalues --   -0.61552  -0.59987  -0.58980  -0.58436  -0.57843
 Alpha  occ. eigenvalues --   -0.56780  -0.56607  -0.56463  -0.55721  -0.55438
 Alpha  occ. eigenvalues --   -0.55164  -0.54165  -0.53621  -0.53494  -0.52954
 Alpha  occ. eigenvalues --   -0.52276  -0.52095  -0.52044  -0.51509  -0.50818
 Alpha  occ. eigenvalues --   -0.50707  -0.50271  -0.49910  -0.49685  -0.49330
 Alpha  occ. eigenvalues --   -0.49082  -0.48672  -0.47477  -0.46965  -0.46271
 Alpha  occ. eigenvalues --   -0.46047  -0.45694  -0.45110  -0.44830  -0.44360
 Alpha  occ. eigenvalues --   -0.43597  -0.42822  -0.42543  -0.42418  -0.42129
 Alpha  occ. eigenvalues --   -0.40605  -0.40260  -0.38680  -0.37977  -0.37649
 Alpha  occ. eigenvalues --   -0.37522  -0.36759  -0.36326  -0.35294  -0.33945
 Alpha  occ. eigenvalues --   -0.31651  -0.30217
 Alpha virt. eigenvalues --   -0.14127  -0.11662  -0.10586  -0.09816  -0.06734
 Alpha virt. eigenvalues --   -0.06537  -0.06205  -0.04096  -0.04077  -0.03602
 Alpha virt. eigenvalues --   -0.01845  -0.01510  -0.01287  -0.00764  -0.00566

 Mulliken charges:
               1
     1  N   -0.759706
     2  C   -0.118730
     3  C    0.608154
     4  O   -0.510687
     5  C   -0.403367
     6  C   -0.020959
     7  C   -0.003295
     8  C    0.084063
     9  C    0.310272
    10  C   -0.219414
    11  N   -0.678062
    12  C   -0.156030
    13  C   -0.135869
    14  C   -0.147719
    15  H    0.404957
    16  H    0.222640
    17  H    0.224862
    18  H    0.195456
    19  H    0.177633
    20  H    0.346486
    21  H    0.133029
    22  H    0.148326
    23  H    0.148785
    24  H    0.153294
    25  H    0.418241
    26  H    0.429506
    27  N   -0.668814
    28  C   -0.071608
    29  C    0.630083
    30  O   -0.451451
    31  C   -0.067802
    32  C   -0.268301
    33  C   -0.468636
    34  C   -0.454094
    35  H    0.409924
    36  H    0.171429
    37  H    0.179333
    38  H    0.119744
    39  H    0.157597
    40  H    0.175080
    41  H    0.141659
    42  H    0.126610
    43  H    0.148453
    44  H    0.165946
    45  H    0.157494
    46  N   -0.694502
    47  C   -0.059957
    48  C    0.655331
    49  O   -0.514340
    50  C   -0.288946
    51  C   -0.262609
    52  C   -0.169414
    53  N   -0.600051
    54  C    0.631927
    55  N   -0.752997
    56  N   -0.744854
    57  O   -0.586559
    58  H    0.459662
    59  H    0.358861
    60  H    0.207119
    61  H    0.171230
    62  H    0.171377
    63  H    0.163477
    64  H    0.154288
    65  H    0.186188
    66  H    0.172556
    67  H    0.342813
    68  H    0.324234
    69  H    0.339871
    70  H    0.350783
 Sum of Mulliken charges =   1.00000

 Dipole moment (field-independent basis, Debye):
    X=           -463.7982    Y=            -72.0835    Z=             15.9912  Tot=            469.6388
 Quadrupole moment (field-independent basis, Debye-Ang):
   XX=          44616.0134   YY=            906.7618   ZZ=            -94.9987
   XY=           6962.7449   XZ=          -1568.5344   YZ=           -262.4013

 Normal termination of Gaussian 16 at Tue May 24 23:12:50 2022.
