 Gaussian 16, Revision C.01,
 Gaussian 16:  ES64L-G16RevC.01  3-Jul-2019

 ----------------------------------------------------------------------
 # B3LYP/6-31G* empiricaldispersion=gd3 guess=read geom=check nosymm in
 tegral(ultrafinegrid)
 ----------------------------------------------------------------------

 ------------------------------------------------------
 Candidate Structure: Conf:879 Charge calc in gas phase
 ------------------------------------------------------
 Structure from the checkpoint file:  "conf-879.chk"
 Charge =  1 Multiplicity = 1

                          Input orientation:
 ---------------------------------------------------------------------
 Center     Atomic      Atomic             Coordinates (Angstroms)
 Number     Number       Type             X           Y           Z
 ---------------------------------------------------------------------
      1          7           0      -93.440797  -13.680583    2.408797
      2          6           0      -93.905263  -12.341367    2.945166
      3          6           0      -93.897083  -12.595438    4.476654
      4          8           0      -92.920930  -13.206001    4.915944
      5          6           0      -95.136008  -11.795386    2.196730
      6          6           0      -96.416110  -12.571531    2.288559
      7          6           0      -97.537061  -12.193702    2.994748
      8          6           0      -96.739290  -13.819872    1.640424
      9          6           0      -98.064463  -14.155641    2.030382
     10          6           0      -96.067340  -14.678717    0.749724
     11          7           0      -98.518716  -13.147548    2.857728
     12          6           0      -98.700299  -15.327313    1.607263
     13          6           0      -96.692976  -15.841588    0.321967
     14          6           0      -97.993603  -16.169913    0.758521
     15          1           0      -92.616201  -13.927912    2.979664
     16          1           0      -93.067766  -11.657685    2.766786
     17          1           0      -95.286814  -10.774382    2.569205
     18          1           0      -94.840767  -11.670260    1.144618
     19          1           0      -97.726823  -11.286870    3.555759
     20          1           0      -99.455524  -13.074849    3.225537
     21          1           0      -95.088568  -14.422057    0.349238
     22          1           0      -99.711392  -15.565094    1.924683
     23          1           0      -96.183675  -16.502961   -0.372267
     24          1           0      -98.458189  -17.085773    0.406825
     25          1           0      -94.154290  -14.411664    2.611506
     26          1           0      -93.207397  -13.659079    1.413670
     27          7           0      -94.936823  -12.149670    5.188759
     28          6           0      -95.046974  -12.106721    6.658027
     29          6           0      -94.236407  -13.239512    7.340953
     30          8           0      -93.275903  -12.971767    8.040320
     31          6           0      -94.662497  -10.719360    7.228792
     32          6           0      -95.160723  -10.603471    8.686508
     33          6           0      -95.228953   -9.587222    6.358036
     34          6           0      -94.528996   -9.441689    9.460698
     35          1           0      -95.708622  -11.746177    4.678556
     36          1           0      -96.106793  -12.280715    6.872897
     37          1           0      -93.568143  -10.665525    7.229047
     38          1           0      -96.256235  -10.496936    8.677986
     39          1           0      -94.935185  -11.531388    9.220366
     40          1           0      -94.785215   -9.570004    5.356242
     41          1           0      -96.320494   -9.672104    6.252806
     42          1           0      -95.024331   -8.614721    6.812258
     43          1           0      -93.439144   -9.550204    9.496275
     44          1           0      -94.896310   -9.423294   10.491873
     45          1           0      -94.758745   -8.467770    9.015035
     46          7           0      -94.687921  -14.545862    7.287535
     47          6           0      -95.556860  -15.318026    6.387124
     48          6           0      -94.776217  -15.700718    5.128128
     49          8           0      -94.990427  -15.287481    3.997300
     50          6           0      -96.929347  -14.707300    6.079587
     51          6           0      -97.880566  -15.602296    5.256824
     52          6           0      -97.968277  -17.068202    5.690575
     53          7           0      -96.772599  -17.783116    5.256626
     54          6           0      -96.466853  -19.050216    5.795741
     55          7           0      -97.119069  -19.725400    6.663168
     56          7           0      -95.272731  -19.540257    5.256116
     57          8           0      -93.753890  -16.522182    5.416627
     58          1           0      -93.241135  -16.678137    4.602046
     59          1           0      -94.038512  -15.131146    7.803861
     60          1           0      -95.718032  -16.258757    6.916445
     61          1           0      -97.385090  -14.467405    7.047364
     62          1           0      -96.809740  -13.775354    5.524075
     63          1           0      -97.586681  -15.566339    4.204081
     64          1           0      -98.880955  -15.156482    5.311896
     65          1           0      -98.024956  -17.139929    6.783688
     66          1           0      -98.889330  -17.523232    5.294119
     67          1           0      -96.617907  -17.745636    4.253155
     68          1           0      -98.043219  -19.335404    6.847947
     69          1           0      -94.508331  -18.875357    5.324627
     70          1           0      -95.030240  -20.429054    5.682112
 ---------------------------------------------------------------------

 SCF Done:  E(RB3LYP) =  -1582.19678504     A.U. after    3 cycles

 Alpha  occ. eigenvalues --  -19.32918 -19.27963 -19.25820 -19.21341 -14.59755
 Alpha  occ. eigenvalues --  -14.50420 -14.50091 -14.46264 -14.43681 -14.41223
 Alpha  occ. eigenvalues --  -14.36418 -10.45588 -10.43604 -10.40871 -10.39389
 Alpha  occ. eigenvalues --  -10.35563 -10.35559 -10.34987 -10.34939 -10.34692
 Alpha  occ. eigenvalues --  -10.33639 -10.31534 -10.31421 -10.30709 -10.30658
 Alpha  occ. eigenvalues --  -10.30164 -10.30150 -10.29555 -10.29493 -10.29121
 Alpha  occ. eigenvalues --  -10.28567 -10.27414 -10.26151 -10.24446  -1.24044
 Alpha  occ. eigenvalues --   -1.18749  -1.15103  -1.14074  -1.13527  -1.10112
 Alpha  occ. eigenvalues --   -1.06786  -1.05370  -1.02502  -0.96975  -0.95741
 Alpha  occ. eigenvalues --   -0.94751  -0.91797  -0.91153  -0.90105  -0.89417
 Alpha  occ. eigenvalues --   -0.85274  -0.84978  -0.84384  -0.83339  -0.80987
 Alpha  occ. eigenvalues --   -0.80335  -0.78940  -0.75047  -0.74410  -0.74097
 Alpha  occ. eigenvalues --   -0.73900  -0.72273  -0.71925  -0.71136  -0.69669
 Alpha  occ. eigenvalues --   -0.68829  -0.67244  -0.66537  -0.66407  -0.65867
 Alpha  occ. eigenvalues --   -0.65043  -0.63198  -0.62712  -0.62260  -0.62051
 Alpha  occ. eigenvalues --   -0.61381  -0.60542  -0.59457  -0.59065  -0.58598
 Alpha  occ. eigenvalues --   -0.57524  -0.57298  -0.56701  -0.56437  -0.55875
 Alpha  occ. eigenvalues --   -0.55294  -0.55075  -0.54749  -0.54340  -0.53829
 Alpha  occ. eigenvalues --   -0.53768  -0.53326  -0.52970  -0.52602  -0.52120
 Alpha  occ. eigenvalues --   -0.50669  -0.50332  -0.50272  -0.50006  -0.49579
 Alpha  occ. eigenvalues --   -0.49049  -0.48551  -0.47028  -0.46977  -0.46667
 Alpha  occ. eigenvalues --   -0.46467  -0.45855  -0.45342  -0.45034  -0.44840
 Alpha  occ. eigenvalues --   -0.44391  -0.44254  -0.43581  -0.42891  -0.42122
 Alpha  occ. eigenvalues --   -0.41017  -0.40853  -0.40006  -0.39037  -0.38466
 Alpha  occ. eigenvalues --   -0.35704  -0.34834  -0.34322  -0.33928  -0.33261
 Alpha  occ. eigenvalues --   -0.32515  -0.31221
 Alpha virt. eigenvalues --   -0.14045  -0.13241  -0.12100  -0.10274  -0.09328
 Alpha virt. eigenvalues --   -0.08541  -0.06718  -0.06286  -0.05284  -0.04120
 Alpha virt. eigenvalues --   -0.03317  -0.02892  -0.02807  -0.01487  -0.01003

 Mulliken charges:
               1
     1  N   -0.763199
     2  C   -0.120792
     3  C    0.664919
     4  O   -0.535544
     5  C   -0.411617
     6  C    0.066254
     7  C   -0.013856
     8  C    0.110379
     9  C    0.308779
    10  C   -0.236370
    11  N   -0.677681
    12  C   -0.163206
    13  C   -0.132215
    14  C   -0.151555
    15  H    0.415575
    16  H    0.229162
    17  H    0.196433
    18  H    0.187711
    19  H    0.175274
    20  H    0.350239
    21  H    0.093976
    22  H    0.154866
    23  H    0.151798
    24  H    0.161576
    25  H    0.458421
    26  H    0.406101
    27  N   -0.618863
    28  C   -0.059697
    29  C    0.618690
    30  O   -0.471455
    31  C   -0.060883
    32  C   -0.269146
    33  C   -0.476891
    34  C   -0.454817
    35  H    0.350909
    36  H    0.166854
    37  H    0.172571
    38  H    0.126217
    39  H    0.166051
    40  H    0.126445
    41  H    0.131026
    42  H    0.184433
    43  H    0.164613
    44  H    0.162095
    45  H    0.148096
    46  N   -0.616813
    47  C   -0.036212
    48  C    0.665275
    49  O   -0.533781
    50  C   -0.291255
    51  C   -0.300299
    52  C   -0.143797
    53  N   -0.630890
    54  C    0.560514
    55  N   -0.616691
    56  N   -0.755164
    57  O   -0.548272
    58  H    0.415547
    59  H    0.354436
    60  H    0.211973
    61  H    0.167207
    62  H    0.149892
    63  H    0.175989
    64  H    0.138813
    65  H    0.165734
    66  H    0.157703
    67  H    0.331650
    68  H    0.286148
    69  H    0.315638
    70  H    0.344977
 Sum of Mulliken charges =   1.00000

 Dipole moment (field-independent basis, Debye):
    X=           -459.3671    Y=            -63.6909    Z=             13.8513  Tot=            463.9683
 Quadrupole moment (field-independent basis, Debye-Ang):
   XX=          43768.7961   YY=            657.1178   ZZ=           -151.3171
   XY=           6083.7269   XZ=          -1346.1552   YZ=           -170.1955

 Normal termination of Gaussian 16 at Tue May 24 23:13:24 2022.
