 Gaussian 16, Revision C.01,
 Gaussian 16:  ES64L-G16RevC.01  3-Jul-2019

 ----------------------------------------------------------------------
 # B3LYP/6-31G* empiricaldispersion=gd3 guess=read geom=check nosymm in
 tegral(ultrafinegrid)
 ----------------------------------------------------------------------

 ------------------------------------------------------
 Candidate Structure: Conf:474 Charge calc in gas phase
 ------------------------------------------------------
 Structure from the checkpoint file:  "conf-474.chk"
 Charge =  1 Multiplicity = 1

                          Input orientation:
 ---------------------------------------------------------------------
 Center     Atomic      Atomic             Coordinates (Angstroms)
 Number     Number       Type             X           Y           Z
 ---------------------------------------------------------------------
      1          7           0      -94.228591  -14.976931    6.090239
      2          6           0      -95.693858  -15.349027    6.036217
      3          6           0      -95.937726  -15.789208    4.575364
      4          8           0      -95.144491  -16.571741    4.059907
      5          6           0      -96.534448  -14.205418    6.637192
      6          6           0      -95.922443  -13.689568    7.904991
      7          6           0      -95.415354  -12.424629    8.099897
      8          6           0      -95.637344  -14.444215    9.103010
      9          6           0      -94.957708  -13.563222    9.989311
     10          6           0      -95.889500  -15.767103    9.516886
     11          7           0      -94.840754  -12.344485    9.346951
     12          6           0      -94.526392  -13.964809   11.257694
     13          6           0      -95.457960  -16.170049   10.773392
     14          6           0      -94.782320  -15.277801   11.633032
     15          1           0      -94.106415  -14.033844    5.664637
     16          1           0      -95.784681  -16.250382    6.648282
     17          1           0      -96.605080  -13.387594    5.913038
     18          1           0      -97.544917  -14.600828    6.809645
     19          1           0      -95.424264  -11.572803    7.433423
     20          1           0      -94.446240  -11.508695    9.752449
     21          1           0      -96.440735  -16.457226    8.882278
     22          1           0      -94.014051  -13.277216   11.924131
     23          1           0      -95.651472  -17.184551   11.108148
     24          1           0      -94.462035  -15.622995   12.611169
     25          1           0      -93.904839  -14.953270    7.063514
     26          1           0      -93.694315  -15.655655    5.530360
     27          7           0      -96.977375  -15.220794    3.928310
     28          6           0      -97.460241  -15.679025    2.616258
     29          6           0      -96.361881  -15.632727    1.526459
     30          8           0      -96.250651  -16.532430    0.718155
     31          6           0      -98.161124  -17.065844    2.654325
     32          6           0      -99.127885  -17.189095    1.453236
     33          6           0      -98.907222  -17.280120    3.979557
     34          6           0      -99.536044  -18.633091    1.145105
     35          1           0      -97.633842  -14.685251    4.478915
     36          1           0      -98.204623  -14.929742    2.318853
     37          1           0      -97.379567  -17.826200    2.555502
     38          1           0     -100.021638  -16.580939    1.660033
     39          1           0      -98.655449  -16.768884    0.561100
     40          1           0      -98.230221  -17.345246    4.838314
     41          1           0      -99.630140  -16.474885    4.169740
     42          1           0      -99.468177  -18.217379    3.947664
     43          1           0     -100.052168  -19.109714    1.985597
     44          1           0      -98.655228  -19.237491    0.900938
     45          1           0     -100.212769  -18.665794    0.285184
     46          7           0      -95.521533  -14.522026    1.392594
     47          6           0      -95.427368  -13.222297    2.073800
     48          6           0      -94.610617  -13.383073    3.360162
     49          8           0      -94.755214  -12.753010    4.398408
     50          6           0      -96.730578  -12.418516    2.216475
     51          6           0      -96.572343  -10.950466    2.665038
     52          6           0      -95.549274  -10.121199    1.879528
     53          7           0      -94.182361  -10.486465    2.249613
     54          6           0      -93.099293   -9.886990    1.571575
     55          7           0      -93.124391   -9.139579    0.535161
     56          7           0      -91.884664  -10.205234    2.185226
     57          8           0      -93.629415  -14.293484    3.297152
     58          1           0      -93.802533  -14.879049    2.527686
     59          1           0      -95.058473  -14.573195    0.490659
     60          1           0      -94.756163  -12.625520    1.446526
     61          1           0      -97.210529  -12.444374    1.230926
     62          1           0      -97.409263  -12.917361    2.913695
     63          1           0      -96.323171  -10.914577    3.730620
     64          1           0      -97.553030  -10.472840    2.558509
     65          1           0      -95.670184  -10.301318    0.803450
     66          1           0      -95.742623   -9.050056    2.045455
     67          1           0      -94.036569  -10.492115    3.255248
     68          1           0      -94.068068   -8.853123    0.277518
     69          1           0      -91.772293  -11.186950    2.415662
     70          1           0      -91.102127   -9.851329    1.645588
 ---------------------------------------------------------------------

 SCF Done:  E(RB3LYP) =  -1582.20388395     A.U. after    2 cycles

 Alpha  occ. eigenvalues --  -19.33335 -19.28849 -19.26582 -19.23635 -14.58865
 Alpha  occ. eigenvalues --  -14.51184 -14.49155 -14.48730 -14.43838 -14.41528
 Alpha  occ. eigenvalues --  -14.36349 -10.46502 -10.43963 -10.41477 -10.40290
 Alpha  occ. eigenvalues --  -10.37256 -10.36150 -10.35700 -10.34031 -10.33692
 Alpha  occ. eigenvalues --  -10.32727 -10.31885 -10.31463 -10.30424 -10.29844
 Alpha  occ. eigenvalues --  -10.29673 -10.29330 -10.29134 -10.29046 -10.28414
 Alpha  occ. eigenvalues --  -10.28241 -10.27595 -10.26469 -10.24672  -1.24897
 Alpha  occ. eigenvalues --   -1.19045  -1.16268  -1.15902  -1.13518  -1.09119
 Alpha  occ. eigenvalues --   -1.07471  -1.05545  -1.04411  -0.97164  -0.94997
 Alpha  occ. eigenvalues --   -0.93884  -0.91965  -0.91439  -0.90990  -0.88687
 Alpha  occ. eigenvalues --   -0.85514  -0.84327  -0.83983  -0.83056  -0.80753
 Alpha  occ. eigenvalues --   -0.80029  -0.78781  -0.75271  -0.74621  -0.73689
 Alpha  occ. eigenvalues --   -0.72857  -0.72772  -0.71826  -0.71151  -0.70141
 Alpha  occ. eigenvalues --   -0.69602  -0.68044  -0.66694  -0.66277  -0.65805
 Alpha  occ. eigenvalues --   -0.64882  -0.64746  -0.63800  -0.63042  -0.62336
 Alpha  occ. eigenvalues --   -0.60608  -0.60172  -0.59152  -0.58949  -0.58120
 Alpha  occ. eigenvalues --   -0.57939  -0.57503  -0.57200  -0.56846  -0.56672
 Alpha  occ. eigenvalues --   -0.55365  -0.54935  -0.54467  -0.54157  -0.53625
 Alpha  occ. eigenvalues --   -0.53522  -0.53108  -0.52436  -0.52364  -0.51947
 Alpha  occ. eigenvalues --   -0.51600  -0.51246  -0.50811  -0.50281  -0.49809
 Alpha  occ. eigenvalues --   -0.49524  -0.49070  -0.48107  -0.47018  -0.46967
 Alpha  occ. eigenvalues --   -0.46576  -0.45902  -0.45670  -0.45646  -0.44641
 Alpha  occ. eigenvalues --   -0.44112  -0.44079  -0.43815  -0.43495  -0.42567
 Alpha  occ. eigenvalues --   -0.41532  -0.41199  -0.40422  -0.39775  -0.38394
 Alpha  occ. eigenvalues --   -0.37913  -0.36832  -0.34342  -0.33326  -0.32998
 Alpha  occ. eigenvalues --   -0.31531  -0.31248
 Alpha virt. eigenvalues --   -0.14367  -0.13920  -0.11880  -0.11005  -0.08096
 Alpha virt. eigenvalues --   -0.07501  -0.06060  -0.05162  -0.04733  -0.04138
 Alpha virt. eigenvalues --   -0.02940  -0.02402  -0.01955  -0.01596  -0.00779

 Mulliken charges:
               1
     1  N   -0.750784
     2  C   -0.107691
     3  C    0.621090
     4  O   -0.517424
     5  C   -0.399650
     6  C    0.000302
     7  C    0.010579
     8  C    0.065310
     9  C    0.311241
    10  C   -0.228288
    11  N   -0.678767
    12  C   -0.153654
    13  C   -0.133201
    14  C   -0.147849
    15  H    0.432479
    16  H    0.230923
    17  H    0.189951
    18  H    0.189638
    19  H    0.177220
    20  H    0.350870
    21  H    0.128022
    22  H    0.154456
    23  H    0.152595
    24  H    0.158833
    25  H    0.417431
    26  H    0.421241
    27  N   -0.622610
    28  C   -0.072207
    29  C    0.630328
    30  O   -0.452656
    31  C   -0.066537
    32  C   -0.270371
    33  C   -0.471666
    34  C   -0.455507
    35  H    0.363522
    36  H    0.182303
    37  H    0.177895
    38  H    0.129436
    39  H    0.163544
    40  H    0.128052
    41  H    0.135974
    42  H    0.185036
    43  H    0.149757
    44  H    0.164859
    45  H    0.163106
    46  N   -0.692692
    47  C   -0.049384
    48  C    0.656004
    49  O   -0.523943
    50  C   -0.276639
    51  C   -0.293814
    52  C   -0.148226
    53  N   -0.634294
    54  C    0.569503
    55  N   -0.623267
    56  N   -0.747212
    57  O   -0.584059
    58  H    0.453099
    59  H    0.361654
    60  H    0.233996
    61  H    0.171533
    62  H    0.135011
    63  H    0.160170
    64  H    0.166730
    65  H    0.162120
    66  H    0.168096
    67  H    0.331808
    68  H    0.287156
    69  H    0.311529
    70  H    0.347993
 Sum of Mulliken charges =   1.00000

 Dipole moment (field-independent basis, Debye):
    X=           -459.7343    Y=            -67.3290    Z=             28.2179  Tot=            465.4944
 Quadrupole moment (field-independent basis, Debye-Ang):
   XX=          43825.5947   YY=            750.7271   ZZ=              6.5976
   XY=           6441.9217   XZ=          -2677.4851   YZ=           -394.6153

 Normal termination of Gaussian 16 at Tue May 24 23:13:08 2022.
