 Gaussian 16, Revision C.01,
 Gaussian 16:  ES64L-G16RevC.01  3-Jul-2019

 ----------------------------------------------------------------------
 # B3LYP/6-31G* empiricaldispersion=gd3 guess=read geom=check nosymm in
 tegral(ultrafinegrid)
 ----------------------------------------------------------------------

 ------------------------------------------------------
 Candidate Structure: Conf:234 Charge calc in gas phase
 ------------------------------------------------------
 Structure from the checkpoint file:  "conf-234.chk"
 Charge =  1 Multiplicity = 1

                          Input orientation:
 ---------------------------------------------------------------------
 Center     Atomic      Atomic             Coordinates (Angstroms)
 Number     Number       Type             X           Y           Z
 ---------------------------------------------------------------------
      1          7           0      -96.889223  -16.202760    5.464647
      2          6           0      -97.266388  -15.371651    4.257841
      3          6           0      -95.938130  -15.123524    3.506751
      4          8           0      -95.238784  -16.090388    3.224363
      5          6           0      -98.121802  -14.177271    4.717760
      6          6           0      -99.210996  -14.617540    5.649694
      7          6           0      -99.321640  -14.283842    6.980900
      8          6           0     -100.273922  -15.552094    5.362455
      9          6           0     -100.997706  -15.733690    6.573021
     10          6           0     -100.689409  -16.244562    4.208610
     11          7           0     -100.390980  -14.948278    7.535879
     12          6           0     -102.106427  -16.581828    6.661030
     13          6           0     -101.787086  -17.090126    4.293547
     14          6           0     -102.486168  -17.257590    5.508043
     15          1           0      -96.194149  -16.907284    5.184331
     16          1           0      -97.854679  -16.037427    3.621179
     17          1           0      -97.483434  -13.447487    5.227055
     18          1           0      -98.533004  -13.704697    3.815319
     19          1           0      -98.712469  -13.613588    7.572410
     20          1           0     -100.717938  -14.833580    8.483662
     21          1           0     -100.181548  -16.102555    3.257452
     22          1           0     -102.650896  -16.705308    7.592604
     23          1           0     -102.122236  -17.625910    3.410714
     24          1           0     -103.342937  -17.923562    5.540077
     25          1           0      -96.451111  -15.578666    6.177464
     26          1           0      -97.725533  -16.639733    5.866678
     27          7           0      -95.595706  -13.837040    3.277744
     28          6           0      -94.483865  -13.437740    2.402282
     29          6           0      -93.107005  -13.971825    2.878518
     30          8           0      -92.296603  -14.379031    2.071397
     31          6           0      -94.722603  -13.749499    0.898226
     32          6           0      -93.877556  -12.785855    0.032027
     33          6           0      -96.210109  -13.649001    0.529704
     34          6           0      -93.683408  -13.271649   -1.407612
     35          1           0      -96.294380  -13.129659    3.454619
     36          1           0      -94.429964  -12.347829    2.517203
     37          1           0      -94.377598  -14.773317    0.721677
     38          1           0      -94.362513  -11.797578    0.034144
     39          1           0      -92.891165  -12.659114    0.486334
     40          1           0      -96.339275  -13.771764   -0.548620
     41          1           0      -96.816510  -14.423733    1.011268
     42          1           0      -96.626358  -12.668138    0.797744
     43          1           0      -94.633518  -13.392126   -1.939631
     44          1           0      -93.163197  -14.235964   -1.419580
     45          1           0      -93.078261  -12.558172   -1.976378
     46          7           0      -92.735924  -13.919442    4.227823
     47          6           0      -93.403227  -13.312927    5.385987
     48          6           0      -94.416811  -14.302070    5.954859
     49          8           0      -95.448580  -14.018276    6.547454
     50          6           0      -93.920552  -11.865722    5.264125
     51          6           0      -93.696743  -11.013646    6.527692
     52          6           0      -92.257533  -10.509092    6.766093
     53          7           0      -91.313172  -11.498232    7.290059
     54          6           0      -90.481415  -12.271603    6.486092
     55          7           0      -90.475379  -12.349120    5.194965
     56          7           0      -89.605525  -13.049464    7.219269
     57          8           0      -94.080847  -15.588508    5.798919
     58          1           0      -93.357610  -15.619767    5.127763
     59          1           0      -91.714805  -13.850795    4.309523
     60          1           0      -92.620722  -13.310794    6.149988
     61          1           0      -93.411462  -11.392262    4.417171
     62          1           0      -94.989952  -11.877290    5.031660
     63          1           0      -94.042292  -11.562894    7.411959
     64          1           0      -94.333174  -10.123800    6.445255
     65          1           0      -91.866648  -10.047786    5.847605
     66          1           0      -92.303720   -9.705987    7.507093
     67          1           0      -90.903126  -11.255345    8.183332
     68          1           0      -91.011461  -11.592381    4.771224
     69          1           0      -89.943950  -13.461835    8.079237
     70          1           0      -89.037944  -13.664974    6.651118
 ---------------------------------------------------------------------

 SCF Done:  E(RB3LYP) =  -1582.21176068     A.U. after    2 cycles

 Alpha  occ. eigenvalues --  -19.32057 -19.27714 -19.25436 -19.22260 -14.58093
 Alpha  occ. eigenvalues --  -14.50094 -14.48616 -14.46384 -14.45032 -14.43301
 Alpha  occ. eigenvalues --  -14.38124 -10.45263 -10.42868 -10.39910 -10.39390
 Alpha  occ. eigenvalues --  -10.37933 -10.35802 -10.35006 -10.33324 -10.33132
 Alpha  occ. eigenvalues --  -10.32543 -10.32149 -10.30713 -10.29847 -10.29381
 Alpha  occ. eigenvalues --  -10.29058 -10.28709 -10.28507 -10.28210 -10.27876
 Alpha  occ. eigenvalues --  -10.27671 -10.26803 -10.25685 -10.23996  -1.23689
 Alpha  occ. eigenvalues --   -1.17907  -1.15088  -1.14400  -1.12725  -1.08559
 Alpha  occ. eigenvalues --   -1.07204  -1.06387  -1.02772  -0.98201  -0.94337
 Alpha  occ. eigenvalues --   -0.93484  -0.93216  -0.90638  -0.90393  -0.87954
 Alpha  occ. eigenvalues --   -0.84887  -0.83626  -0.83345  -0.82324  -0.79976
 Alpha  occ. eigenvalues --   -0.79291  -0.78622  -0.74029  -0.73476  -0.72758
 Alpha  occ. eigenvalues --   -0.72293  -0.72012  -0.71180  -0.70969  -0.69493
 Alpha  occ. eigenvalues --   -0.68725  -0.67372  -0.67213  -0.65447  -0.64986
 Alpha  occ. eigenvalues --   -0.64578  -0.64119  -0.63271  -0.62736  -0.62088
 Alpha  occ. eigenvalues --   -0.61148  -0.59510  -0.59162  -0.58428  -0.57397
 Alpha  occ. eigenvalues --   -0.56895  -0.56722  -0.56367  -0.56006  -0.55798
 Alpha  occ. eigenvalues --   -0.55500  -0.54322  -0.54167  -0.53468  -0.53349
 Alpha  occ. eigenvalues --   -0.52948  -0.52514  -0.52129  -0.51755  -0.51179
 Alpha  occ. eigenvalues --   -0.50986  -0.50767  -0.50215  -0.50002  -0.49450
 Alpha  occ. eigenvalues --   -0.48868  -0.48477  -0.47707  -0.46250  -0.46129
 Alpha  occ. eigenvalues --   -0.45870  -0.45375  -0.45183  -0.44900  -0.44590
 Alpha  occ. eigenvalues --   -0.43732  -0.43505  -0.43240  -0.42652  -0.41934
 Alpha  occ. eigenvalues --   -0.40698  -0.40343  -0.39384  -0.38799  -0.37743
 Alpha  occ. eigenvalues --   -0.36816  -0.35890  -0.35217  -0.34758  -0.32575
 Alpha  occ. eigenvalues --   -0.32424  -0.30961
 Alpha virt. eigenvalues --   -0.13133  -0.12689  -0.11327  -0.09934  -0.07440
 Alpha virt. eigenvalues --   -0.06737  -0.05369  -0.04744  -0.04528  -0.03475
 Alpha virt. eigenvalues --   -0.02648  -0.01813  -0.01536  -0.01263  -0.00725

 Mulliken charges:
               1
     1  N   -0.749852
     2  C   -0.104615
     3  C    0.617393
     4  O   -0.513060
     5  C   -0.402986
     6  C   -0.001429
     7  C    0.005337
     8  C    0.072557
     9  C    0.309965
    10  C   -0.224322
    11  N   -0.679359
    12  C   -0.154385
    13  C   -0.134122
    14  C   -0.147898
    15  H    0.421148
    16  H    0.228941
    17  H    0.191414
    18  H    0.190122
    19  H    0.178788
    20  H    0.349100
    21  H    0.128014
    22  H    0.151923
    23  H    0.151021
    24  H    0.156615
    25  H    0.431931
    26  H    0.415014
    27  N   -0.623995
    28  C   -0.068795
    29  C    0.616991
    30  O   -0.447382
    31  C   -0.065287
    32  C   -0.269803
    33  C   -0.470975
    34  C   -0.455005
    35  H    0.362220
    36  H    0.174618
    37  H    0.178219
    38  H    0.125725
    39  H    0.164456
    40  H    0.182050
    41  H    0.129534
    42  H    0.132828
    43  H    0.147872
    44  H    0.165439
    45  H    0.160555
    46  N   -0.702155
    47  C   -0.051843
    48  C    0.637821
    49  O   -0.520051
    50  C   -0.286153
    51  C   -0.268071
    52  C   -0.154668
    53  N   -0.603412
    54  C    0.585864
    55  N   -0.672364
    56  N   -0.742500
    57  O   -0.588755
    58  H    0.456662
    59  H    0.387761
    60  H    0.224202
    61  H    0.159161
    62  H    0.144426
    63  H    0.162115
    64  H    0.158305
    65  H    0.161491
    66  H    0.172217
    67  H    0.341448
    68  H    0.286365
    69  H    0.331077
    70  H    0.354535
 Sum of Mulliken charges =   1.00000

 Dipole moment (field-independent basis, Debye):
    X=           -463.9492    Y=            -67.3858    Z=             30.0873  Tot=            469.7818
 Quadrupole moment (field-independent basis, Debye-Ang):
   XX=          44660.4645   YY=            776.7878   ZZ=             15.5254
   XY=           6538.5902   XZ=          -2889.2853   YZ=           -425.9007

 Normal termination of Gaussian 16 at Tue May 24 23:13:10 2022.
