 Gaussian 16, Revision C.01,
 Gaussian 16:  ES64L-G16RevC.01  3-Jul-2019

 ----------------------------------------------------------------------
 # B3LYP/6-31G* empiricaldispersion=gd3 guess=read geom=check nosymm in
 tegral(ultrafinegrid)
 ----------------------------------------------------------------------

 ------------------------------------------------------
 Candidate Structure: Conf:156 Charge calc in gas phase
 ------------------------------------------------------
 Structure from the checkpoint file:  "conf-156.chk"
 Charge =  1 Multiplicity = 1

                          Input orientation:
 ---------------------------------------------------------------------
 Center     Atomic      Atomic             Coordinates (Angstroms)
 Number     Number       Type             X           Y           Z
 ---------------------------------------------------------------------
      1          7           0      -94.494367  -12.088889    5.584897
      2          6           0      -93.906055  -13.482573    5.551768
      3          6           0      -94.225370  -14.022544    4.138780
      4          8           0      -93.907990  -13.341892    3.169384
      5          6           0      -94.380104  -14.257959    6.794381
      6          6           0      -94.213410  -13.439691    8.039882
      7          6           0      -95.229499  -12.964558    8.838308
      8          6           0      -92.980274  -12.906349    8.569593
      9          6           0      -93.327803  -12.117530    9.700691
     10          6           0      -91.623824  -13.021011    8.208437
     11          7           0      -94.702905  -12.174895    9.834358
     12          6           0      -92.369464  -11.444978   10.465926
     13          6           0      -90.670552  -12.351530    8.963516
     14          6           0      -91.040984  -11.570516   10.079111
     15          1           0      -94.099888  -11.558689    6.369302
     16          1           0      -92.822913  -13.339383    5.583733
     17          1           0      -95.435691  -14.524609    6.675946
     18          1           0      -93.793725  -15.185676    6.842467
     19          1           0      -96.294908  -13.138037    8.767525
     20          1           0      -95.232790  -11.752024   10.581853
     21          1           0      -91.318421  -13.644263    7.371139
     22          1           0      -92.651794  -10.850540   11.329905
     23          1           0      -89.620575  -12.435531    8.700320
     24          1           0      -90.270599  -11.062578   10.651040
     25          1           0      -94.310031  -11.624454    4.685763
     26          1           0      -95.528249  -12.164370    5.706506
     27          7           0      -94.909812  -15.184918    4.067900
     28          6           0      -95.108721  -15.933199    2.817850
     29          6           0      -95.885809  -15.131113    1.740343
     30          8           0      -95.559845  -15.200877    0.572920
     31          6           0      -93.804129  -16.546065    2.235569
     32          6           0      -94.156933  -17.771750    1.360199
     33          6           0      -92.818382  -16.937034    3.346479
     34          6           0      -93.036134  -18.176415    0.397742
     35          1           0      -95.022176  -15.712929    4.921385
     36          1           0      -95.772572  -16.759244    3.102324
     37          1           0      -93.344013  -15.782532    1.600201
     38          1           0      -94.407003  -18.614358    2.023039
     39          1           0      -95.051245  -17.552043    0.770820
     40          1           0      -92.428561  -16.068540    3.888317
     41          1           0      -93.280159  -17.619120    4.073622
     42          1           0      -91.956388  -17.455210    2.918711
     43          1           0      -92.810246  -17.356710   -0.293434
     44          1           0      -93.335757  -19.044067   -0.199042
     45          1           0      -92.111578  -18.442990    0.921550
     46          7           0      -97.021584  -14.382083    2.071906
     47          6           0      -97.763664  -14.267476    3.333107
     48          6           0      -97.107032  -13.201466    4.205796
     49          8           0      -97.109485  -13.167117    5.428497
     50          6           0      -98.148682  -15.559093    4.081613
     51          6           0      -99.558242  -15.525025    4.701868
     52          6           0     -100.739540  -15.704993    3.724676
     53          7           0     -101.085874  -14.531848    2.919325
     54          6           0     -100.585641  -14.298180    1.642041
     55          7           0      -99.676034  -14.968139    1.012105
     56          7           0     -101.145692  -13.183804    1.046772
     57          8           0      -96.519336  -12.212387    3.521351
     58          1           0      -96.430609  -12.519482    2.587322
     59          1           0      -97.652085  -14.323193    1.263751
     60          1           0      -98.695525  -13.782497    3.029201
     61          1           0      -98.088015  -16.393621    3.374082
     62          1           0      -97.419202  -15.754594    4.873732
     63          1           0      -99.691912  -14.595945    5.269248
     64          1           0      -99.621765  -16.345270    5.427698
     65          1           0     -100.561894  -16.578764    3.081112
     66          1           0     -101.628061  -15.945135    4.315477
     67          1           0     -102.031243  -14.194963    3.052950
     68          1           0      -99.493866  -15.865932    1.459731
     69          1           0     -101.336471  -12.379913    1.631156
     70          1           0     -100.746115  -12.963449    0.143675
 ---------------------------------------------------------------------

 SCF Done:  E(RB3LYP) =  -1582.21176533     A.U. after    2 cycles

 Alpha  occ. eigenvalues --  -19.32051 -19.27709 -19.25441 -19.22264 -14.58093
 Alpha  occ. eigenvalues --  -14.50099 -14.48617 -14.46387 -14.45034 -14.43303
 Alpha  occ. eigenvalues --  -14.38126 -10.45257 -10.42872 -10.39914 -10.39393
 Alpha  occ. eigenvalues --  -10.37935 -10.35799 -10.35010 -10.33322 -10.33131
 Alpha  occ. eigenvalues --  -10.32545 -10.32153 -10.30715 -10.29847 -10.29382
 Alpha  occ. eigenvalues --  -10.29062 -10.28713 -10.28511 -10.28210 -10.27880
 Alpha  occ. eigenvalues --  -10.27675 -10.26803 -10.25686 -10.23996  -1.23684
 Alpha  occ. eigenvalues --   -1.17912  -1.15085  -1.14405  -1.12723  -1.08560
 Alpha  occ. eigenvalues --   -1.07206  -1.06391  -1.02775  -0.98202  -0.94338
 Alpha  occ. eigenvalues --   -0.93486  -0.93218  -0.90639  -0.90393  -0.87955
 Alpha  occ. eigenvalues --   -0.84888  -0.83629  -0.83347  -0.82326  -0.79976
 Alpha  occ. eigenvalues --   -0.79291  -0.78623  -0.74028  -0.73473  -0.72761
 Alpha  occ. eigenvalues --   -0.72296  -0.72014  -0.71181  -0.70965  -0.69494
 Alpha  occ. eigenvalues --   -0.68725  -0.67374  -0.67215  -0.65448  -0.64987
 Alpha  occ. eigenvalues --   -0.64580  -0.64122  -0.63274  -0.62736  -0.62087
 Alpha  occ. eigenvalues --   -0.61150  -0.59511  -0.59161  -0.58429  -0.57398
 Alpha  occ. eigenvalues --   -0.56897  -0.56720  -0.56367  -0.56007  -0.55801
 Alpha  occ. eigenvalues --   -0.55503  -0.54322  -0.54169  -0.53470  -0.53349
 Alpha  occ. eigenvalues --   -0.52952  -0.52515  -0.52131  -0.51758  -0.51182
 Alpha  occ. eigenvalues --   -0.50984  -0.50767  -0.50214  -0.50004  -0.49450
 Alpha  occ. eigenvalues --   -0.48872  -0.48477  -0.47709  -0.46251  -0.46129
 Alpha  occ. eigenvalues --   -0.45870  -0.45377  -0.45185  -0.44897  -0.44590
 Alpha  occ. eigenvalues --   -0.43731  -0.43508  -0.43244  -0.42653  -0.41929
 Alpha  occ. eigenvalues --   -0.40699  -0.40343  -0.39389  -0.38804  -0.37746
 Alpha  occ. eigenvalues --   -0.36821  -0.35892  -0.35219  -0.34760  -0.32577
 Alpha  occ. eigenvalues --   -0.32427  -0.30963
 Alpha virt. eigenvalues --   -0.13136  -0.12682  -0.11329  -0.09936  -0.07445
 Alpha virt. eigenvalues --   -0.06734  -0.05370  -0.04748  -0.04530  -0.03480
 Alpha virt. eigenvalues --   -0.02650  -0.01809  -0.01536  -0.01259  -0.00721

 Mulliken charges:
               1
     1  N   -0.749855
     2  C   -0.104611
     3  C    0.617416
     4  O   -0.513153
     5  C   -0.402885
     6  C   -0.001405
     7  C    0.005453
     8  C    0.072277
     9  C    0.310005
    10  C   -0.224407
    11  N   -0.679352
    12  C   -0.154387
    13  C   -0.134111
    14  C   -0.147898
    15  H    0.415062
    16  H    0.228911
    17  H    0.191506
    18  H    0.190033
    19  H    0.178865
    20  H    0.349102
    21  H    0.128037
    22  H    0.151940
    23  H    0.151033
    24  H    0.156630
    25  H    0.421162
    26  H    0.431924
    27  N   -0.623924
    28  C   -0.068832
    29  C    0.616964
    30  O   -0.447329
    31  C   -0.065313
    32  C   -0.269789
    33  C   -0.470999
    34  C   -0.455008
    35  H    0.362206
    36  H    0.174671
    37  H    0.178243
    38  H    0.125719
    39  H    0.164448
    40  H    0.129543
    41  H    0.132851
    42  H    0.182061
    43  H    0.165431
    44  H    0.160556
    45  H    0.147879
    46  N   -0.702215
    47  C   -0.051847
    48  C    0.637668
    49  O   -0.519984
    50  C   -0.286094
    51  C   -0.268060
    52  C   -0.154700
    53  N   -0.603399
    54  C    0.585774
    55  N   -0.672302
    56  N   -0.742500
    57  O   -0.588822
    58  H    0.456675
    59  H    0.387765
    60  H    0.224258
    61  H    0.159131
    62  H    0.144356
    63  H    0.162153
    64  H    0.158292
    65  H    0.161511
    66  H    0.172233
    67  H    0.341448
    68  H    0.286370
    69  H    0.331076
    70  H    0.354544
 Sum of Mulliken charges =   1.00000

 Dipole moment (field-independent basis, Debye):
    X=           -462.5841    Y=            -64.3490    Z=             30.0663  Tot=            468.0051
 Quadrupole moment (field-independent basis, Debye-Ang):
   XX=          44409.4558   YY=            693.7330   ZZ=              2.6253
   XY=           6203.3544   XZ=          -2871.4739   YZ=           -390.3744

 Normal termination of Gaussian 16 at Tue May 24 23:13:10 2022.
