 Gaussian 16, Revision C.01,
 Gaussian 16:  ES64L-G16RevC.01  3-Jul-2019

 ----------------------------------------------------------------------
 # B3LYP/6-31G* empiricaldispersion=gd3 guess=read geom=check nosymm in
 tegral(ultrafinegrid)
 ----------------------------------------------------------------------

 ------------------------------------------------------
 Candidate Structure: Conf:344 Charge calc in gas phase
 ------------------------------------------------------
 Structure from the checkpoint file:  "conf-344.chk"
 Charge =  1 Multiplicity = 1

                          Input orientation:
 ---------------------------------------------------------------------
 Center     Atomic      Atomic             Coordinates (Angstroms)
 Number     Number       Type             X           Y           Z
 ---------------------------------------------------------------------
      1          7           0      -96.717461  -12.451827    3.367077
      2          6           0      -95.771310  -13.509616    2.856896
      3          6           0      -96.416004  -14.828887    3.338038
      4          8           0      -97.633116  -14.849843    3.523817
      5          6           0      -94.329265  -13.203659    3.322290
      6          6           0      -94.030140  -11.734637    3.299675
      7          6           0      -93.668520  -10.971179    4.385849
      8          6           0      -94.171169  -10.828694    2.182975
      9          6           0      -93.871781   -9.525810    2.670784
     10          6           0      -94.525212  -10.982826    0.827277
     11          7           0      -93.568220   -9.650722    4.013323
     12          6           0      -93.915366   -8.392480    1.852858
     13          6           0      -94.575858   -9.857862    0.014390
     14          6           0      -94.274409   -8.576948    0.523189
     15          1           0      -96.599194  -12.393156    4.396010
     16          1           0      -95.842979  -13.466437    1.766043
     17          1           0      -94.200136  -13.585900    4.338454
     18          1           0      -93.649308  -13.758438    2.661115
     19          1           0      -93.471910  -11.278935    5.403903
     20          1           0      -93.264051   -8.898260    4.613226
     21          1           0      -94.719656  -11.966840    0.407006
     22          1           0      -93.676366   -7.406640    2.240686
     23          1           0      -94.838453   -9.964009   -1.033698
     24          1           0      -94.317471   -7.718477   -0.139827
     25          1           0      -96.529678  -11.543983    2.927149
     26          1           0      -97.674636  -12.794137    3.192324
     27          7           0      -95.576604  -15.851322    3.563943
     28          6           0      -95.973296  -17.220159    3.938893
     29          6           0      -97.198960  -17.230622    4.890716
     30          8           0      -98.217098  -17.817885    4.572956
     31          6           0      -96.208185  -18.134612    2.710840
     32          6           0      -96.171215  -19.614835    3.152711
     33          6           0      -95.173895  -17.861717    1.608055
     34          6           0      -96.772328  -20.576419    2.122367
     35          1           0      -94.610610  -15.736260    3.289323
     36          1           0      -95.122128  -17.615533    4.506645
     37          1           0      -97.210607  -17.908450    2.331192
     38          1           0      -95.127413  -19.893598    3.362615
     39          1           0      -96.725649  -19.727736    4.088911
     40          1           0      -94.146960  -17.981968    1.981723
     41          1           0      -95.300670  -18.567667    0.783618
     42          1           0      -95.271665  -16.856384    1.183266
     43          1           0      -96.737391  -21.606333    2.492060
     44          1           0      -96.236385  -20.554010    1.167234
     45          1           0      -97.821500  -20.325970    1.929047
     46          7           0      -97.102951  -16.719101    6.176317
     47          6           0      -96.269172  -15.723981    6.865396
     48          6           0      -96.779836  -14.317690    6.533668
     49          8           0      -96.186405  -13.457295    5.892570
     50          6           0      -94.752003  -15.890593    6.712921
     51          6           0      -93.885780  -14.892993    7.510937
     52          6           0      -94.280571  -14.704475    8.979477
     53          7           0      -95.500489  -13.908510    9.077183
     54          6           0      -96.251780  -13.900945   10.273419
     55          7           0      -96.017550  -14.519531   11.366337
     56          7           0      -97.382559  -13.088686   10.136732
     57          8           0      -98.028821  -14.138479    6.986812
     58          1           0      -98.350021  -13.266626    6.689977
     59          1           0      -97.996889  -16.861581    6.636289
     60          1           0      -96.511607  -15.859894    7.921012
     61          1           0      -94.522976  -16.913789    7.032620
     62          1           0      -94.469255  -15.808240    5.662844
     63          1           0      -93.898367  -13.915838    7.011943
     64          1           0      -92.849667  -15.247978    7.468208
     65          1           0      -94.481629  -15.680574    9.437093
     66          1           0      -93.446447  -14.255960    9.540324
     67          1           0      -95.412944  -12.976992    8.682079
     68          1           0      -95.087028  -14.936277   11.390780
     69          1           0      -97.935523  -13.315129    9.315666
     70          1           0      -97.944425  -13.118262   10.981565
 ---------------------------------------------------------------------

 SCF Done:  E(RB3LYP) =  -1582.20063462     A.U. after    1 cycles

 Alpha  occ. eigenvalues --  -19.33558 -19.28814 -19.26037 -19.21537 -14.58858
 Alpha  occ. eigenvalues --  -14.50458 -14.49496 -14.46472 -14.44207 -14.41621
 Alpha  occ. eigenvalues --  -14.36837 -10.46340 -10.43554 -10.40223 -10.39586
 Alpha  occ. eigenvalues --  -10.36062 -10.35991 -10.34956 -10.34026 -10.33998
 Alpha  occ. eigenvalues --  -10.33133 -10.31984 -10.30692 -10.30622 -10.30093
 Alpha  occ. eigenvalues --  -10.29884 -10.29813 -10.29461 -10.28822 -10.28686
 Alpha  occ. eigenvalues --  -10.28315 -10.27020 -10.25852 -10.24178  -1.24743
 Alpha  occ. eigenvalues --   -1.18747  -1.15694  -1.13981  -1.13318  -1.09468
 Alpha  occ. eigenvalues --   -1.06806  -1.05801  -1.02697  -0.97401  -0.95147
 Alpha  occ. eigenvalues --   -0.94026  -0.92213  -0.90993  -0.90510  -0.88679
 Alpha  occ. eigenvalues --   -0.85408  -0.84506  -0.83978  -0.82855  -0.80237
 Alpha  occ. eigenvalues --   -0.79916  -0.79418  -0.74752  -0.74442  -0.73894
 Alpha  occ. eigenvalues --   -0.73245  -0.72059  -0.71774  -0.70323  -0.69918
 Alpha  occ. eigenvalues --   -0.68330  -0.67376  -0.66786  -0.65641  -0.65037
 Alpha  occ. eigenvalues --   -0.64903  -0.63543  -0.63047  -0.62723  -0.62375
 Alpha  occ. eigenvalues --   -0.62132  -0.59816  -0.59426  -0.58885  -0.57961
 Alpha  occ. eigenvalues --   -0.57369  -0.57302  -0.56956  -0.56049  -0.55637
 Alpha  occ. eigenvalues --   -0.55374  -0.55124  -0.53961  -0.53893  -0.53849
 Alpha  occ. eigenvalues --   -0.53652  -0.53166  -0.53021  -0.52487  -0.52161
 Alpha  occ. eigenvalues --   -0.50695  -0.50579  -0.49840  -0.49762  -0.49408
 Alpha  occ. eigenvalues --   -0.49243  -0.48529  -0.47468  -0.46617  -0.46398
 Alpha  occ. eigenvalues --   -0.46219  -0.46128  -0.45502  -0.45068  -0.44489
 Alpha  occ. eigenvalues --   -0.44260  -0.44192  -0.43779  -0.42866  -0.42599
 Alpha  occ. eigenvalues --   -0.40863  -0.40641  -0.40023  -0.38765  -0.38363
 Alpha  occ. eigenvalues --   -0.35930  -0.35066  -0.34702  -0.33658  -0.33403
 Alpha  occ. eigenvalues --   -0.31900  -0.31657
 Alpha virt. eigenvalues --   -0.14079  -0.12598  -0.11804  -0.09398  -0.08614
 Alpha virt. eigenvalues --   -0.07870  -0.06522  -0.05324  -0.04816  -0.04344
 Alpha virt. eigenvalues --   -0.03547  -0.03015  -0.02083  -0.01914  -0.01534

 Mulliken charges:
               1
     1  N   -0.747141
     2  C   -0.124896
     3  C    0.668384
     4  O   -0.536053
     5  C   -0.392952
     6  C    0.010008
     7  C    0.012538
     8  C    0.052785
     9  C    0.315271
    10  C   -0.236466
    11  N   -0.679710
    12  C   -0.153566
    13  C   -0.131856
    14  C   -0.148069
    15  H    0.424392
    16  H    0.227679
    17  H    0.200131
    18  H    0.183061
    19  H    0.172733
    20  H    0.350846
    21  H    0.129181
    22  H    0.155765
    23  H    0.154005
    24  H    0.160349
    25  H    0.414683
    26  H    0.415130
    27  N   -0.623491
    28  C   -0.058231
    29  C    0.618185
    30  O   -0.467584
    31  C   -0.062284
    32  C   -0.268722
    33  C   -0.475731
    34  C   -0.454916
    35  H    0.355173
    36  H    0.171958
    37  H    0.173348
    38  H    0.128388
    39  H    0.164218
    40  H    0.137159
    41  H    0.183348
    42  H    0.124913
    43  H    0.161573
    44  H    0.148232
    45  H    0.163921
    46  N   -0.617392
    47  C   -0.035651
    48  C    0.665121
    49  O   -0.543119
    50  C   -0.287769
    51  C   -0.293016
    52  C   -0.145494
    53  N   -0.630038
    54  C    0.559238
    55  N   -0.613508
    56  N   -0.755975
    57  O   -0.544134
    58  H    0.419991
    59  H    0.354792
    60  H    0.214280
    61  H    0.174702
    62  H    0.143616
    63  H    0.145722
    64  H    0.163340
    65  H    0.169019
    66  H    0.163838
    67  H    0.325884
    68  H    0.287835
    69  H    0.316526
    70  H    0.346500
 Sum of Mulliken charges =   1.00000

 Dipole moment (field-independent basis, Debye):
    X=           -456.5301    Y=            -60.6279    Z=             19.0051  Tot=            460.9302
 Quadrupole moment (field-independent basis, Debye-Ang):
   XX=          43201.8457   YY=            609.4276   ZZ=           -112.7576
   XY=           5750.5541   XZ=          -1802.0430   YZ=           -243.8943

 Normal termination of Gaussian 16 at Tue May 24 23:12:44 2022.
