 Gaussian 16, Revision C.01,
 Gaussian 16:  ES64L-G16RevC.01  3-Jul-2019

 ----------------------------------------------------------------------
 # B3LYP/6-31G* empiricaldispersion=gd3 guess=read geom=check nosymm in
 tegral(ultrafinegrid)
 ----------------------------------------------------------------------

 ------------------------------------------------------
 Candidate Structure: Conf:304 Charge calc in gas phase
 ------------------------------------------------------
 Structure from the checkpoint file:  "conf-304.chk"
 Charge =  1 Multiplicity = 1

                          Input orientation:
 ---------------------------------------------------------------------
 Center     Atomic      Atomic             Coordinates (Angstroms)
 Number     Number       Type             X           Y           Z
 ---------------------------------------------------------------------
      1          7           0      -94.491988  -12.185309    3.174240
      2          6           0      -93.831358  -13.471121    3.618090
      3          6           0      -94.746417  -14.566339    3.030860
      4          8           0      -95.301108  -14.348344    1.953772
      5          6           0      -93.578318  -13.454637    5.146876
      6          6           0      -93.324142  -12.070386    5.661569
      7          6           0      -94.129966  -11.384826    6.542619
      8          6           0      -92.287270  -11.157793    5.241798
      9          6           0      -92.521124   -9.931196    5.924931
     10          6           0      -91.200194  -11.247113    4.349328
     11          7           0      -93.646549  -10.107940    6.708161
     12          6           0      -91.701482   -8.812275    5.748813
     13          6           0      -90.390126  -10.133419    4.166329
     14          6           0      -90.638884   -8.930610    4.860374
     15          1           0      -95.376761  -12.068110    3.696119
     16          1           0      -92.882755  -13.505586    3.073521
     17          1           0      -94.442677  -13.864091    5.673094
     18          1           0      -92.724498  -14.118896    5.335927
     19          1           0      -95.024980  -11.723561    7.045937
     20          1           0      -94.028441   -9.420924    7.341368
     21          1           0      -90.972850  -12.179683    3.836998
     22          1           0      -91.887324   -7.885948    6.284336
     23          1           0      -89.543560  -10.189779    3.488913
     24          1           0      -89.983299   -8.080289    4.700380
     25          1           0      -93.873455  -11.382299    3.346799
     26          1           0      -94.736650  -12.286459    2.178650
     27          7           0      -94.944247  -15.676836    3.768501
     28          6           0      -95.657229  -16.851678    3.235524
     29          6           0      -97.081887  -16.472091    2.762994
     30          8           0      -97.531105  -16.896810    1.719066
     31          6           0      -94.877706  -17.618204    2.133062
     32          6           0      -95.407240  -19.068596    2.045508
     33          6           0      -93.366618  -17.601144    2.405990
     34          6           0      -95.021265  -19.780958    0.745372
     35          1           0      -94.351051  -15.827351    4.573562
     36          1           0      -95.776270  -17.522354    4.093352
     37          1           0      -95.078125  -17.113343    1.182654
     38          1           0      -95.027638  -19.632817    2.910925
     39          1           0      -96.498168  -19.062597    2.122290
     40          1           0      -92.938192  -16.595216    2.336333
     41          1           0      -93.132432  -18.007230    3.399570
     42          1           0      -92.843767  -18.219024    1.671827
     43          1           0      -95.425282  -19.245420   -0.121085
     44          1           0      -95.427518  -20.797384    0.729272
     45          1           0      -93.936071  -19.860626    0.619377
     46          7           0      -97.887052  -15.624979    3.540996
     47          6           0      -97.858655  -15.270325    4.972075
     48          6           0      -97.116318  -13.947684    5.188744
     49          8           0      -96.694951  -13.547595    6.250294
     50          6           0      -97.440536  -16.385863    5.952629
     51          6           0      -97.801474  -16.159685    7.434674
     52          6           0      -99.272128  -15.838875    7.723095
     53          7           0      -99.609254  -14.476407    7.308936
     54          6           0     -100.925569  -14.008823    7.508911
     55          7           0     -101.960011  -14.673037    7.858817
     56          7           0     -101.015397  -12.632941    7.279039
     57          8           0      -97.004835  -13.175642    4.075556
     58          1           0      -97.302623  -13.731698    3.314805
     59          1           0      -98.819336  -15.633757    3.136922
     60          1           0      -98.892335  -15.005470    5.230611
     61          1           0      -97.929468  -17.302491    5.601016
     62          1           0      -96.360187  -16.553465    5.893357
     63          1           0      -97.167947  -15.371554    7.852780
     64          1           0      -97.546103  -17.081651    7.969899
     65          1           0      -99.921734  -16.533764    7.175061
     66          1           0      -99.471118  -15.994796    8.794833
     67          1           0      -98.918235  -13.795063    7.612132
     68          1           0     -101.739721  -15.626910    8.142185
     69          1           0     -100.557878  -12.315432    6.431062
     70          1           0     -101.979478  -12.321391    7.326821
 ---------------------------------------------------------------------

 SCF Done:  E(RB3LYP) =  -1582.20373990     A.U. after    2 cycles

 Alpha  occ. eigenvalues --  -19.33282 -19.27430 -19.27196 -19.23865 -14.59503
 Alpha  occ. eigenvalues --  -14.51585 -14.49187 -14.48644 -14.43313 -14.41062
 Alpha  occ. eigenvalues --  -14.35829 -10.45435 -10.44565 -10.41501 -10.40869
 Alpha  occ. eigenvalues --  -10.36675 -10.36223 -10.35188 -10.33962 -10.33449
 Alpha  occ. eigenvalues --  -10.32939 -10.31345 -10.31326 -10.30359 -10.29908
 Alpha  occ. eigenvalues --  -10.29703 -10.29313 -10.29281 -10.29242 -10.28676
 Alpha  occ. eigenvalues --  -10.28575 -10.27698 -10.26614 -10.24794  -1.23833
 Alpha  occ. eigenvalues --   -1.19769  -1.16135  -1.15518  -1.14060  -1.09157
 Alpha  occ. eigenvalues --   -1.07792  -1.05034  -1.04229  -0.96660  -0.95123
 Alpha  occ. eigenvalues --   -0.94136  -0.91595  -0.91466  -0.90573  -0.88987
 Alpha  occ. eigenvalues --   -0.85249  -0.84388  -0.84094  -0.83213  -0.80874
 Alpha  occ. eigenvalues --   -0.80178  -0.78318  -0.75176  -0.74643  -0.73910
 Alpha  occ. eigenvalues --   -0.72988  -0.72783  -0.72096  -0.70788  -0.70107
 Alpha  occ. eigenvalues --   -0.69609  -0.68143  -0.66359  -0.66167  -0.65890
 Alpha  occ. eigenvalues --   -0.65065  -0.64475  -0.63891  -0.63061  -0.61884
 Alpha  occ. eigenvalues --   -0.60643  -0.59589  -0.58977  -0.58568  -0.58161
 Alpha  occ. eigenvalues --   -0.57991  -0.57556  -0.57122  -0.56725  -0.56592
 Alpha  occ. eigenvalues --   -0.55148  -0.55008  -0.54401  -0.54174  -0.53861
 Alpha  occ. eigenvalues --   -0.53482  -0.53298  -0.52522  -0.52345  -0.52094
 Alpha  occ. eigenvalues --   -0.51698  -0.51110  -0.50637  -0.50256  -0.49671
 Alpha  occ. eigenvalues --   -0.49157  -0.49058  -0.47751  -0.47088  -0.46979
 Alpha  occ. eigenvalues --   -0.46157  -0.45924  -0.45194  -0.45114  -0.44753
 Alpha  occ. eigenvalues --   -0.44312  -0.44085  -0.43926  -0.43481  -0.42036
 Alpha  occ. eigenvalues --   -0.41615  -0.41208  -0.40744  -0.40211  -0.38622
 Alpha  occ. eigenvalues --   -0.38031  -0.36762  -0.33772  -0.33215  -0.32863
 Alpha  occ. eigenvalues --   -0.31695  -0.30720
 Alpha virt. eigenvalues --   -0.14402  -0.12754  -0.12021  -0.11086  -0.08637
 Alpha virt. eigenvalues --   -0.08204  -0.06382  -0.05280  -0.04530  -0.03989
 Alpha virt. eigenvalues --   -0.02456  -0.02190  -0.01975  -0.01392  -0.01088

 Mulliken charges:
               1
     1  N   -0.746243
     2  C   -0.120854
     3  C    0.642146
     4  O   -0.529352
     5  C   -0.399553
     6  C   -0.006277
     7  C    0.013685
     8  C    0.048859
     9  C    0.317361
    10  C   -0.237571
    11  N   -0.679527
    12  C   -0.153333
    13  C   -0.131451
    14  C   -0.148518
    15  H    0.435216
    16  H    0.232105
    17  H    0.196120
    18  H    0.188052
    19  H    0.198911
    20  H    0.351533
    21  H    0.126568
    22  H    0.156087
    23  H    0.153314
    24  H    0.159843
    25  H    0.419488
    26  H    0.418312
    27  N   -0.624322
    28  C   -0.072642
    29  C    0.628184
    30  O   -0.448852
    31  C   -0.067334
    32  C   -0.271393
    33  C   -0.469925
    34  C   -0.455454
    35  H    0.362595
    36  H    0.183719
    37  H    0.177737
    38  H    0.130084
    39  H    0.163485
    40  H    0.125254
    41  H    0.138040
    42  H    0.185068
    43  H    0.164520
    44  H    0.163631
    45  H    0.150137
    46  N   -0.699114
    47  C   -0.058770
    48  C    0.633866
    49  O   -0.467729
    50  C   -0.282320
    51  C   -0.295882
    52  C   -0.146255
    53  N   -0.632468
    54  C    0.572141
    55  N   -0.625280
    56  N   -0.746449
    57  O   -0.624426
    58  H    0.452768
    59  H    0.362105
    60  H    0.240095
    61  H    0.170225
    62  H    0.134743
    63  H    0.171955
    64  H    0.165248
    65  H    0.160749
    66  H    0.167962
    67  H    0.335677
    68  H    0.286947
    69  H    0.309890
    70  H    0.346866
 Sum of Mulliken charges =   1.00000

 Dipole moment (field-independent basis, Debye):
    X=           -453.4348    Y=            -63.6653    Z=             21.7572  Tot=            458.3991
 Quadrupole moment (field-independent basis, Debye-Ang):
   XX=          42610.5234   YY=            701.7832   ZZ=            -97.0785
   XY=           6020.6698   XZ=          -2055.8469   YZ=           -290.4973

 Normal termination of Gaussian 16 at Tue May 24 23:13:10 2022.
