 Gaussian 16, Revision C.01,
 Gaussian 16:  ES64L-G16RevC.01  3-Jul-2019

 ----------------------------------------------------------------------
 # B3LYP/6-31G* empiricaldispersion=gd3 guess=read geom=check nosymm in
 tegral(ultrafinegrid)
 ----------------------------------------------------------------------

 ------------------------------------------------------
 Candidate Structure: Conf:121 Charge calc in gas phase
 ------------------------------------------------------
 Structure from the checkpoint file:  "conf-121.chk"
 Charge =  1 Multiplicity = 1

                          Input orientation:
 ---------------------------------------------------------------------
 Center     Atomic      Atomic             Coordinates (Angstroms)
 Number     Number       Type             X           Y           Z
 ---------------------------------------------------------------------
      1          7           0      -93.634716  -15.132785    4.407867
      2          6           0      -94.888404  -15.537677    3.669947
      3          6           0      -95.330982  -14.240707    2.959694
      4          8           0      -94.526871  -13.725162    2.187194
      5          6           0      -95.828972  -16.274918    4.634444
      6          6           0      -95.159220  -17.488613    5.210668
      7          6           0      -94.765616  -17.667429    6.518311
      8          6           0      -94.750555  -18.672386    4.491613
      9          6           0      -94.117356  -19.530983    5.429879
     10          6           0      -94.867971  -19.091045    3.153404
     11          7           0      -94.138639  -18.888165    6.654196
     12          6           0      -93.598188  -20.779053    5.069763
     13          6           0      -94.353949  -20.328696    2.791213
     14          6           0      -93.724086  -21.162281    3.740155
     15          1           0      -93.202414  -15.958796    4.836536
     16          1           0      -94.564181  -16.215767    2.875895
     17          1           0      -96.145207  -15.594628    5.433228
     18          1           0      -96.722579  -16.557941    4.063152
     19          1           0      -94.913151  -17.020642    7.373001
     20          1           0      -93.816834  -19.284900    7.523960
     21          1           0      -95.367878  -18.467124    2.416439
     22          1           0      -93.119284  -21.424702    5.800363
     23          1           0      -94.441044  -20.667138    1.763147
     24          1           0      -93.334325  -22.125656    3.425454
     25          1           0      -92.996013  -14.686214    3.739667
     26          1           0      -93.888826  -14.408142    5.162624
     27          7           0      -96.543966  -13.750337    3.270016
     28          6           0      -97.076976  -12.490356    2.738125
     29          6           0      -96.013506  -11.362080    2.814890
     30          8           0      -95.653739  -10.755539    1.820862
     31          6           0      -97.650906  -12.620931    1.306724
     32          6           0      -98.552022  -11.404757    0.997763
     33          6           0      -98.418420  -13.939521    1.139177
     34          6           0      -98.861990  -11.232600   -0.492825
     35          1           0      -97.026261  -14.137891    4.069354
     36          1           0      -97.901779  -12.235191    3.413335
     37          1           0      -96.797969  -12.606552    0.619922
     38          1           0      -99.489924  -11.508601    1.565376
     39          1           0      -98.063316  -10.492290    1.352675
     40          1           0      -98.863880  -13.999503    0.142413
     41          1           0      -97.767966  -14.811072    1.259716
     42          1           0      -99.233690  -14.021206    1.871043
     43          1           0      -97.936041  -11.102623   -1.064531
     44          1           0      -99.485118  -10.347311   -0.659342
     45          1           0      -99.397752  -12.093047   -0.908129
     46          7           0      -95.439101  -11.045911    4.033837
     47          6           0      -95.797611  -11.283795    5.437605
     48          6           0      -95.600860  -12.770091    5.864278
     49          8           0      -96.601058  -13.477171    6.087635
     50          6           0      -97.171011  -10.684649    5.817532
     51          6           0      -97.657052  -10.889630    7.266819
     52          6           0      -96.972130  -10.098010    8.397256
     53          7           0      -95.497060  -10.217228    8.506349
     54          6           0      -94.774201  -11.339019    8.484885
     55          7           0      -95.317208  -12.542296    8.725855
     56          7           0      -93.445111  -11.267181    8.261143
     57          8           0      -94.376995  -13.135077    6.014594
     58          1           0      -94.953497  -13.310519    8.159458
     59          1           0      -94.734025  -10.334209    3.886485
     60          1           0      -95.019514  -10.737052    5.974572
     61          1           0      -97.151475   -9.615481    5.569248
     62          1           0      -97.931641  -11.138055    5.176285
     63          1           0      -97.672025  -11.962052    7.472064
     64          1           0      -98.705680  -10.570489    7.317664
     65          1           0      -97.147534   -9.028770    8.254316
     66          1           0      -97.422909  -10.363912    9.361426
     67          1           0      -94.976366   -9.350129    8.536365
     68          1           0      -96.312436  -12.595911    8.891046
     69          1           0      -93.092844  -10.481348    7.729868
     70          1           0      -92.974770  -12.139058    8.050362
 ---------------------------------------------------------------------

 SCF Done:  E(RB3LYP) =  -1582.22674111     A.U. after    1 cycles

 Alpha  occ. eigenvalues --  -19.21492 -19.21478 -19.20888 -19.19246 -14.54180
 Alpha  occ. eigenvalues --  -14.53135 -14.52046 -14.51491 -14.47045 -14.45979
 Alpha  occ. eigenvalues --  -14.44391 -10.48533 -10.39031 -10.38995 -10.37045
 Alpha  occ. eigenvalues --  -10.36821 -10.35886 -10.33495 -10.32051 -10.31597
 Alpha  occ. eigenvalues --  -10.30829 -10.30470 -10.29964 -10.29595 -10.28030
 Alpha  occ. eigenvalues --  -10.27151 -10.26953 -10.26888 -10.26338 -10.26010
 Alpha  occ. eigenvalues --  -10.25670 -10.24068 -10.23974 -10.22593  -1.17338
 Alpha  occ. eigenvalues --   -1.14670  -1.13875  -1.11488  -1.09051  -1.06894
 Alpha  occ. eigenvalues --   -1.06675  -1.05342  -1.05139  -1.02620  -1.00262
 Alpha  occ. eigenvalues --   -0.92289  -0.91436  -0.90750  -0.88141  -0.85887
 Alpha  occ. eigenvalues --   -0.85486  -0.81840  -0.81439  -0.80632  -0.80097
 Alpha  occ. eigenvalues --   -0.77866  -0.77378  -0.76487  -0.74502  -0.72340
 Alpha  occ. eigenvalues --   -0.70700  -0.70602  -0.69453  -0.69259  -0.68636
 Alpha  occ. eigenvalues --   -0.68221  -0.67295  -0.66337  -0.65933  -0.64980
 Alpha  occ. eigenvalues --   -0.64547  -0.62905  -0.62515  -0.62043  -0.61708
 Alpha  occ. eigenvalues --   -0.60516  -0.60374  -0.59653  -0.58618  -0.57234
 Alpha  occ. eigenvalues --   -0.56681  -0.55826  -0.55448  -0.55111  -0.54697
 Alpha  occ. eigenvalues --   -0.53430  -0.53252  -0.52762  -0.51961  -0.51778
 Alpha  occ. eigenvalues --   -0.51426  -0.51094  -0.50929  -0.50765  -0.50032
 Alpha  occ. eigenvalues --   -0.49462  -0.49200  -0.49053  -0.48496  -0.47656
 Alpha  occ. eigenvalues --   -0.47328  -0.46771  -0.46485  -0.45978  -0.45809
 Alpha  occ. eigenvalues --   -0.44926  -0.44105  -0.43672  -0.43536  -0.43358
 Alpha  occ. eigenvalues --   -0.41794  -0.41672  -0.41582  -0.41241  -0.40033
 Alpha  occ. eigenvalues --   -0.38764  -0.38381  -0.37942  -0.36823  -0.36432
 Alpha  occ. eigenvalues --   -0.35425  -0.35048  -0.34885  -0.32863  -0.32190
 Alpha  occ. eigenvalues --   -0.30749  -0.29267
 Alpha virt. eigenvalues --   -0.14350  -0.09748  -0.09352  -0.09173  -0.08025
 Alpha virt. eigenvalues --   -0.06219  -0.05767  -0.04814  -0.04359  -0.03945
 Alpha virt. eigenvalues --   -0.03045  -0.02829  -0.01411  -0.00873  -0.00217

 Mulliken charges:
               1
     1  N   -0.766030
     2  C   -0.107434
     3  C    0.616826
     4  O   -0.517520
     5  C   -0.408888
     6  C    0.016181
     7  C   -0.009358
     8  C    0.086924
     9  C    0.309288
    10  C   -0.215001
    11  N   -0.682550
    12  C   -0.157411
    13  C   -0.136704
    14  C   -0.147825
    15  H    0.389785
    16  H    0.217308
    17  H    0.204476
    18  H    0.185470
    19  H    0.153013
    20  H    0.341464
    21  H    0.130286
    22  H    0.143591
    23  H    0.145974
    24  H    0.149779
    25  H    0.404212
    26  H    0.437661
    27  N   -0.617794
    28  C   -0.058025
    29  C    0.616234
    30  O   -0.480108
    31  C   -0.066569
    32  C   -0.265124
    33  C   -0.457989
    34  C   -0.452372
    35  H    0.377806
    36  H    0.159241
    37  H    0.176225
    38  H    0.119961
    39  H    0.154039
    40  H    0.167354
    41  H    0.137552
    42  H    0.131967
    43  H    0.161784
    44  H    0.151620
    45  H    0.147863
    46  N   -0.623934
    47  C   -0.005672
    48  C    0.612070
    49  O   -0.570703
    50  C   -0.263099
    51  C   -0.317568
    52  C   -0.165037
    53  N   -0.585889
    54  C    0.743392
    55  N   -0.717441
    56  N   -0.706880
    57  O   -0.677982
    58  H    0.383288
    59  H    0.334462
    60  H    0.108566
    61  H    0.149246
    62  H    0.171768
    63  H    0.180669
    64  H    0.180581
    65  H    0.191706
    66  H    0.193439
    67  H    0.367192
    68  H    0.381130
    69  H    0.368846
    70  H    0.380668
 Sum of Mulliken charges =   1.00000

 Dipole moment (field-independent basis, Debye):
    X=           -455.2653    Y=            -63.9751    Z=             36.6636  Tot=            461.1979
 Quadrupole moment (field-independent basis, Debye-Ang):
   XX=          42976.6294   YY=            728.8208   ZZ=             81.7109
   XY=           6043.8420   XZ=          -3472.2022   YZ=           -458.6440

 Normal termination of Gaussian 16 at Tue May 24 23:12:46 2022.
