 Gaussian 16, Revision C.01,
 Gaussian 16:  ES64L-G16RevC.01  3-Jul-2019

 ----------------------------------------------------------------------
 # B3LYP/6-31G* empiricaldispersion=gd3 guess=read geom=check nosymm in
 tegral(ultrafinegrid)
 ----------------------------------------------------------------------

 ------------------------------------------------------
 Candidate Structure: Conf:696 Charge calc in gas phase
 ------------------------------------------------------
 Structure from the checkpoint file:  "conf-696.chk"
 Charge =  1 Multiplicity = 1

                          Input orientation:
 ---------------------------------------------------------------------
 Center     Atomic      Atomic             Coordinates (Angstroms)
 Number     Number       Type             X           Y           Z
 ---------------------------------------------------------------------
      1          7           0      -96.659564  -13.289461    6.763495
      2          6           0      -95.615095  -14.373281    6.638000
      3          6           0      -94.556251  -13.734422    5.714052
      4          8           0      -94.306017  -12.542732    5.880759
      5          6           0      -96.282993  -15.696637    6.225430
      6          6           0      -97.481699  -15.994805    7.076029
      7          6           0      -98.791462  -16.034149    6.653703
      8          6           0      -97.498412  -16.204915    8.504899
      9          6           0      -98.859472  -16.370379    8.880623
     10          6           0      -96.502949  -16.278223    9.497926
     11          7           0      -99.619037  -16.259289    7.730541
     12          6           0      -99.247496  -16.596828   10.205263
     13          6           0      -96.884276  -16.500317   10.814049
     14          6           0      -98.242914  -16.655668   11.163103
     15          1           0      -97.114530  -13.187988    5.827271
     16          1           0      -95.169592  -14.469049    7.632756
     17          1           0      -96.571020  -15.636538    5.171945
     18          1           0      -95.527805  -16.488249    6.328837
     19          1           0      -99.194076  -15.926824    5.655456
     20          1           0     -100.618734  -16.386056    7.679588
     21          1           0      -95.449907  -16.188595    9.241555
     22          1           0     -100.291920  -16.724859   10.474331
     23          1           0      -96.127081  -16.564548   11.589528
     24          1           0      -98.507830  -16.831109   12.201228
     25          1           0      -97.350763  -13.525457    7.482206
     26          1           0      -96.167533  -12.407370    6.964356
     27          7           0      -94.010340  -14.516599    4.766531
     28          6           0      -92.936099  -14.094120    3.856946
     29          6           0      -93.133432  -12.626671    3.397707
     30          8           0      -92.262840  -11.796568    3.587924
     31          6           0      -91.519488  -14.311540    4.445819
     32          6           0      -90.472992  -14.271969    3.310110
     33          6           0      -91.442787  -15.633845    5.223448
     34          6           0      -89.034923  -14.091169    3.806955
     35          1           0      -94.251815  -15.496696    4.756916
     36          1           0      -93.038104  -14.733932    2.972517
     37          1           0      -91.325657  -13.477707    5.129185
     38          1           0      -90.553360  -15.200971    2.724885
     39          1           0      -90.706449  -13.445999    2.631925
     40          1           0      -91.719865  -16.488200    4.589490
     41          1           0      -90.423940  -15.810888    5.577117
     42          1           0      -92.092827  -15.635313    6.105014
     43          1           0      -88.937235  -13.154707    4.367651
     44          1           0      -88.338219  -14.049662    2.963252
     45          1           0      -88.711934  -14.911182    4.457527
     46          7           0      -94.259296  -12.240362    2.688319
     47          6           0      -95.491567  -12.838407    2.161512
     48          6           0      -96.633175  -12.650046    3.184810
     49          8           0      -96.823447  -13.461997    4.088730
     50          6           0      -95.408224  -14.291129    1.676871
     51          6           0      -96.702141  -14.831453    1.032666
     52          6           0      -97.221343  -14.120844   -0.232407
     53          7           0      -97.826466  -12.816109    0.029534
     54          6           0      -97.215068  -11.606192   -0.230063
     55          7           0      -96.221499  -11.318203   -0.979218
     56          7           0      -97.736713  -10.553162    0.591135
     57          8           0      -97.392215  -11.573183    3.107102
     58          1           0      -97.330399  -11.071285    2.230522
     59          1           0      -94.167387  -11.254736    2.466709
     60          1           0      -95.703880  -12.218816    1.293232
     61          1           0      -94.577679  -14.357259    0.964220
     62          1           0      -95.175417  -14.939971    2.524111
     63          1           0      -97.503034  -14.848432    1.785203
     64          1           0      -96.522503  -15.880615    0.767397
     65          1           0      -96.410282  -13.987015   -0.953881
     66          1           0      -97.965543  -14.759958   -0.720386
     67          1           0      -98.530404  -12.813096    0.756982
     68          1           0      -95.851504  -12.122476   -1.484030
     69          1           0      -98.754584  -10.488572    0.556312
     70          1           0      -97.342626   -9.672863    0.262206
 ---------------------------------------------------------------------

 SCF Done:  E(RB3LYP) =  -1582.21254824     A.U. after    1 cycles

 Alpha  occ. eigenvalues --  -19.30131 -19.26368 -19.24076 -19.20621 -14.56948
 Alpha  occ. eigenvalues --  -14.48800 -14.48379 -14.47137 -14.46807 -14.45992
 Alpha  occ. eigenvalues --  -14.39809 -10.44317 -10.41723 -10.39644 -10.38829
 Alpha  occ. eigenvalues --  -10.38459 -10.35449 -10.33977 -10.33562 -10.32929
 Alpha  occ. eigenvalues --  -10.32639 -10.31869 -10.30697 -10.30449 -10.29547
 Alpha  occ. eigenvalues --  -10.28725 -10.28403 -10.28253 -10.27622 -10.27413
 Alpha  occ. eigenvalues --  -10.27396 -10.26107 -10.25213 -10.23637  -1.21848
 Alpha  occ. eigenvalues --   -1.16878  -1.13398  -1.13086  -1.11472  -1.09246
 Alpha  occ. eigenvalues --   -1.08300  -1.05158  -1.01973  -1.00561  -0.95698
 Alpha  occ. eigenvalues --   -0.93879  -0.92693  -0.90882  -0.89884  -0.87378
 Alpha  occ. eigenvalues --   -0.85093  -0.83266  -0.82919  -0.81839  -0.79546
 Alpha  occ. eigenvalues --   -0.78893  -0.78443  -0.74179  -0.72839  -0.72328
 Alpha  occ. eigenvalues --   -0.72054  -0.71875  -0.70715  -0.70146  -0.69703
 Alpha  occ. eigenvalues --   -0.69108  -0.67670  -0.66730  -0.66234  -0.64621
 Alpha  occ. eigenvalues --   -0.64345  -0.63720  -0.62950  -0.62396  -0.61938
 Alpha  occ. eigenvalues --   -0.61204  -0.58898  -0.58614  -0.58111  -0.57838
 Alpha  occ. eigenvalues --   -0.56765  -0.56487  -0.56199  -0.55951  -0.55434
 Alpha  occ. eigenvalues --   -0.54932  -0.54587  -0.53697  -0.53451  -0.52770
 Alpha  occ. eigenvalues --   -0.52654  -0.52535  -0.51795  -0.51275  -0.51190
 Alpha  occ. eigenvalues --   -0.50761  -0.50569  -0.49639  -0.49302  -0.48975
 Alpha  occ. eigenvalues --   -0.48788  -0.47935  -0.47490  -0.46281  -0.45907
 Alpha  occ. eigenvalues --   -0.45676  -0.45536  -0.44900  -0.44793  -0.43426
 Alpha  occ. eigenvalues --   -0.43239  -0.43120  -0.42975  -0.41928  -0.41401
 Alpha  occ. eigenvalues --   -0.40052  -0.39806  -0.39129  -0.38523  -0.37348
 Alpha  occ. eigenvalues --   -0.37127  -0.36952  -0.34588  -0.34408  -0.33876
 Alpha  occ. eigenvalues --   -0.32148  -0.30679
 Alpha virt. eigenvalues --   -0.12716  -0.11200  -0.10508  -0.07921  -0.07082
 Alpha virt. eigenvalues --   -0.06331  -0.05869  -0.04727  -0.04623  -0.03569
 Alpha virt. eigenvalues --   -0.02624  -0.02017  -0.01379  -0.00940  -0.00759

 Mulliken charges:
               1
     1  N   -0.743889
     2  C   -0.115593
     3  C    0.669958
     4  O   -0.526400
     5  C   -0.390878
     6  C    0.001325
     7  C    0.002797
     8  C    0.076232
     9  C    0.310302
    10  C   -0.221760
    11  N   -0.680265
    12  C   -0.154994
    13  C   -0.134505
    14  C   -0.147913
    15  H    0.427012
    16  H    0.223704
    17  H    0.193241
    18  H    0.180943
    19  H    0.167871
    20  H    0.347161
    21  H    0.126827
    22  H    0.150175
    23  H    0.149876
    24  H    0.155350
    25  H    0.408479
    26  H    0.416278
    27  N   -0.620323
    28  C   -0.060927
    29  C    0.631462
    30  O   -0.473491
    31  C   -0.061755
    32  C   -0.267517
    33  C   -0.471228
    34  C   -0.454054
    35  H    0.352281
    36  H    0.162816
    37  H    0.174205
    38  H    0.124105
    39  H    0.161629
    40  H    0.133348
    41  H    0.178975
    42  H    0.128178
    43  H    0.163736
    44  H    0.158262
    45  H    0.147743
    46  N   -0.630655
    47  C   -0.047256
    48  C    0.630378
    49  O   -0.532600
    50  C   -0.287690
    51  C   -0.296103
    52  C   -0.145847
    53  N   -0.575488
    54  C    0.534674
    55  N   -0.600513
    56  N   -0.801462
    57  O   -0.587794
    58  H    0.466904
    59  H    0.350752
    60  H    0.185065
    61  H    0.168355
    62  H    0.154943
    63  H    0.150432
    64  H    0.168024
    65  H    0.167586
    66  H    0.182313
    67  H    0.325471
    68  H    0.299185
    69  H    0.351171
    70  H    0.371379
 Sum of Mulliken charges =   1.00000

 Dipole moment (field-independent basis, Debye):
    X=           -468.8660    Y=            -69.9445    Z=             22.1508  Tot=            474.5716
 Quadrupole moment (field-independent basis, Debye-Ang):
   XX=          45593.9680   YY=            830.5399   ZZ=            -33.0411
   XY=           6808.7888   XZ=          -2166.0386   YZ=           -335.2215

 Normal termination of Gaussian 16 at Tue May 24 23:12:43 2022.
