 Gaussian 16, Revision C.01,
 Gaussian 16:  ES64L-G16RevC.01  3-Jul-2019

 ----------------------------------------------------------------------
 # B3LYP/6-31G* empiricaldispersion=gd3 guess=read geom=check nosymm in
 tegral(ultrafinegrid)
 ----------------------------------------------------------------------

 ------------------------------------------------------
 Candidate Structure: Conf:102 Charge calc in gas phase
 ------------------------------------------------------
 Structure from the checkpoint file:  "conf-102.chk"
 Charge =  1 Multiplicity = 1

                          Input orientation:
 ---------------------------------------------------------------------
 Center     Atomic      Atomic             Coordinates (Angstroms)
 Number     Number       Type             X           Y           Z
 ---------------------------------------------------------------------
      1          7           0      -97.431991  -12.944020    3.714376
      2          6           0      -97.241494  -14.437659    3.628682
      3          6           0      -97.082909  -14.863854    5.105301
      4          8           0      -97.600415  -14.161207    5.974081
      5          6           0      -96.087749  -14.771979    2.656031
      6          6           0      -96.075016  -13.861484    1.464839
      7          6           0      -95.044473  -13.024262    1.103659
      8          6           0      -97.161499  -13.603295    0.547944
      9          6           0      -96.710688  -12.595026   -0.349429
     10          6           0      -98.466821  -14.113740    0.397461
     11          7           0      -95.418552  -12.268643    0.016663
     12          6           0      -97.516374  -12.092507   -1.375937
     13          6           0      -99.271421  -13.611519   -0.617046
     14          6           0      -98.800166  -12.611187   -1.493273
     15          1           0      -97.771084  -12.562694    2.824085
     16          1           0      -98.190023  -14.833628    3.253935
     17          1           0      -95.139519  -14.683444    3.193146
     18          1           0      -96.210774  -15.821091    2.353524
     19          1           0      -94.063660  -12.915405    1.546336
     20          1           0      -94.821987  -11.618436   -0.473179
     21          1           0      -98.832896  -14.914321    1.036037
     22          1           0      -97.152885  -11.328001   -2.056244
     23          1           0     -100.275659  -14.002347   -0.749231
     24          1           0      -99.452061  -12.243951   -2.279777
     25          1           0      -98.076264  -12.766960    4.500098
     26          1           0      -96.518520  -12.524000    3.970105
     27          7           0      -96.341312  -15.959544    5.330150
     28          6           0      -96.131468  -16.598946    6.641170
     29          6           0      -96.020437  -15.556735    7.785508
     30          8           0      -96.795863  -15.591013    8.723591
     31          6           0      -97.199498  -17.674087    6.962262
     32          6           0      -96.684278  -18.594767    8.091200
     33          6           0      -97.564802  -18.486620    5.710596
     34          6           0      -97.786638  -19.428459    8.752542
     35          1           0      -96.044105  -16.498972    4.528614
     36          1           0      -95.155844  -17.093876    6.561332
     37          1           0      -98.088205  -17.144137    7.322124
     38          1           0      -95.908518  -19.257488    7.678528
     39          1           0      -96.205726  -17.986949    8.864624
     40          1           0      -98.257129  -19.292002    5.967765
     41          1           0      -98.057565  -17.876193    4.945554
     42          1           0      -96.676756  -18.954410    5.262015
     43          1           0      -98.549235  -18.776800    9.193730
     44          1           0      -97.371266  -20.047094    9.554651
     45          1           0      -98.283179  -20.101451    8.045039
     46          7           0      -94.947126  -14.680372    7.844757
     47          6           0      -94.001157  -14.090892    6.886702
     48          6           0      -94.680903  -12.930828    6.151492
     49          8           0      -94.957551  -12.884359    4.957848
     50          6           0      -93.271875  -15.075094    5.963359
     51          6           0      -92.216852  -14.454403    5.023071
     52          6           0      -91.237306  -13.478816    5.683792
     53          7           0      -91.902501  -12.211331    5.970706
     54          6           0      -91.329269  -11.297219    6.882483
     55          7           0      -90.240750  -11.405482    7.542308
     56          7           0      -92.139970  -10.164972    7.016200
     57          8           0      -95.013591  -11.949303    7.002023
     58          1           0      -95.512894  -11.266641    6.516173
     59          1           0      -95.048673  -14.119219    8.684862
     60          1           0      -93.249935  -13.611127    7.516813
     61          1           0      -92.792173  -15.811157    6.618861
     62          1           0      -93.991386  -15.612463    5.344570
     63          1           0      -92.720797  -13.943407    4.193060
     64          1           0      -91.646598  -15.277757    4.577811
     65          1           0      -90.886241  -13.894357    6.635998
     66          1           0      -90.348940  -13.346524    5.047561
     67          1           0      -92.261787  -11.742887    5.144268
     68          1           0      -89.668629  -12.190311    7.231064
     69          1           0      -93.106337  -10.393212    7.228906
     70          1           0      -91.749508   -9.528659    7.703920
 ---------------------------------------------------------------------

 SCF Done:  E(RB3LYP) =  -1582.20063507     A.U. after    1 cycles

 Alpha  occ. eigenvalues --  -19.33557 -19.28814 -19.26032 -19.21534 -14.58863
 Alpha  occ. eigenvalues --  -14.50455 -14.49495 -14.46469 -14.44203 -14.41620
 Alpha  occ. eigenvalues --  -14.36836 -10.46339 -10.43551 -10.40221 -10.39582
 Alpha  occ. eigenvalues --  -10.36059 -10.35987 -10.34953 -10.34027 -10.34003
 Alpha  occ. eigenvalues --  -10.33132 -10.31978 -10.30695 -10.30618 -10.30093
 Alpha  occ. eigenvalues --  -10.29878 -10.29810 -10.29458 -10.28820 -10.28683
 Alpha  occ. eigenvalues --  -10.28315 -10.27022 -10.25853 -10.24178  -1.24742
 Alpha  occ. eigenvalues --   -1.18744  -1.15693  -1.13979  -1.13320  -1.09468
 Alpha  occ. eigenvalues --   -1.06804  -1.05799  -1.02695  -0.97399  -0.95148
 Alpha  occ. eigenvalues --   -0.94028  -0.92211  -0.90991  -0.90504  -0.88678
 Alpha  occ. eigenvalues --   -0.85405  -0.84504  -0.83977  -0.82855  -0.80238
 Alpha  occ. eigenvalues --   -0.79917  -0.79415  -0.74751  -0.74442  -0.73892
 Alpha  occ. eigenvalues --   -0.73244  -0.72059  -0.71777  -0.70322  -0.69914
 Alpha  occ. eigenvalues --   -0.68329  -0.67375  -0.66783  -0.65643  -0.65037
 Alpha  occ. eigenvalues --   -0.64901  -0.63540  -0.63042  -0.62724  -0.62375
 Alpha  occ. eigenvalues --   -0.62130  -0.59816  -0.59422  -0.58882  -0.57958
 Alpha  occ. eigenvalues --   -0.57367  -0.57298  -0.56951  -0.56050  -0.55635
 Alpha  occ. eigenvalues --   -0.55370  -0.55123  -0.53959  -0.53889  -0.53848
 Alpha  occ. eigenvalues --   -0.53651  -0.53166  -0.53019  -0.52489  -0.52160
 Alpha  occ. eigenvalues --   -0.50695  -0.50574  -0.49840  -0.49760  -0.49406
 Alpha  occ. eigenvalues --   -0.49243  -0.48527  -0.47463  -0.46613  -0.46400
 Alpha  occ. eigenvalues --   -0.46218  -0.46126  -0.45498  -0.45064  -0.44487
 Alpha  occ. eigenvalues --   -0.44257  -0.44190  -0.43778  -0.42867  -0.42598
 Alpha  occ. eigenvalues --   -0.40861  -0.40640  -0.40022  -0.38764  -0.38362
 Alpha  occ. eigenvalues --   -0.35927  -0.35065  -0.34701  -0.33656  -0.33401
 Alpha  occ. eigenvalues --   -0.31899  -0.31656
 Alpha virt. eigenvalues --   -0.14079  -0.12594  -0.11804  -0.09397  -0.08607
 Alpha virt. eigenvalues --   -0.07878  -0.06521  -0.05329  -0.04817  -0.04332
 Alpha virt. eigenvalues --   -0.03545  -0.03009  -0.02086  -0.01914  -0.01539

 Mulliken charges:
               1
     1  N   -0.747078
     2  C   -0.125050
     3  C    0.668460
     4  O   -0.536076
     5  C   -0.392873
     6  C    0.009870
     7  C    0.012391
     8  C    0.052847
     9  C    0.315214
    10  C   -0.236278
    11  N   -0.679644
    12  C   -0.153581
    13  C   -0.131879
    14  C   -0.148052
    15  H    0.414735
    16  H    0.227743
    17  H    0.200072
    18  H    0.183094
    19  H    0.172724
    20  H    0.350860
    21  H    0.129230
    22  H    0.155756
    23  H    0.153995
    24  H    0.160342
    25  H    0.415124
    26  H    0.424289
    27  N   -0.623502
    28  C   -0.058371
    29  C    0.618287
    30  O   -0.467630
    31  C   -0.062300
    32  C   -0.268710
    33  C   -0.475697
    34  C   -0.454920
    35  H    0.355174
    36  H    0.171972
    37  H    0.173360
    38  H    0.128380
    39  H    0.164223
    40  H    0.183354
    41  H    0.124817
    42  H    0.137173
    43  H    0.163918
    44  H    0.161576
    45  H    0.148227
    46  N   -0.617413
    47  C   -0.035554
    48  C    0.665133
    49  O   -0.543130
    50  C   -0.287672
    51  C   -0.292893
    52  C   -0.145548
    53  N   -0.630043
    54  C    0.559284
    55  N   -0.613523
    56  N   -0.755970
    57  O   -0.544079
    58  H    0.419928
    59  H    0.354789
    60  H    0.214254
    61  H    0.174678
    62  H    0.143567
    63  H    0.145624
    64  H    0.163375
    65  H    0.169014
    66  H    0.163853
    67  H    0.325923
    68  H    0.287864
    69  H    0.316479
    70  H    0.346492
 Sum of Mulliken charges =   1.00000

 Dipole moment (field-independent basis, Debye):
    X=           -461.1478    Y=            -65.7855    Z=             14.2089  Tot=            466.0332
 Quadrupole moment (field-independent basis, Debye-Ang):
   XX=          44091.4669   YY=            734.5700   ZZ=           -142.6737
   XY=           6305.8502   XZ=          -1356.8340   YZ=           -211.6223

 Normal termination of Gaussian 16 at Tue May 24 23:12:43 2022.
