 Gaussian 16, Revision C.01,
 Gaussian 16:  ES64L-G16RevC.01  3-Jul-2019

 ----------------------------------------------------------------------
 # B3LYP/6-31G* empiricaldispersion=gd3 guess=read geom=check nosymm in
 tegral(ultrafinegrid)
 ----------------------------------------------------------------------

 -----------------------------------------------------
 Candidate Structure: Conf:34 Charge calc in gas phase
 -----------------------------------------------------
 Structure from the checkpoint file:  "conf-34.chk"
 Charge =  1 Multiplicity = 1

                          Input orientation:
 ---------------------------------------------------------------------
 Center     Atomic      Atomic             Coordinates (Angstroms)
 Number     Number       Type             X           Y           Z
 ---------------------------------------------------------------------
      1          7           0      -94.638334  -12.215146    4.842998
      2          6           0      -94.009605  -13.570703    5.078531
      3          6           0      -94.316128  -14.384185    3.800382
      4          8           0      -94.067907  -13.877388    2.710746
      5          6           0      -94.459353  -14.106226    6.451760
      6          6           0      -94.359083  -13.045475    7.506351
      7          6           0      -95.415040  -12.468816    8.175793
      8          6           0      -93.165735  -12.349579    7.926855
      9          6           0      -93.576624  -11.362879    8.865194
     10          6           0      -91.798089  -12.463456    7.610626
     11          7           0      -94.949818  -11.464254    8.992258
     12          6           0      -92.669471  -10.496445    9.483766
     13          6           0      -90.895745  -11.601999    8.219627
     14          6           0      -91.328458  -10.628187    9.145000
     15          1           0      -94.256069  -11.528898    5.502093
     16          1           0      -92.930676  -13.393816    5.075777
     17          1           0      -95.496439  -14.450708    6.386035
     18          1           0      -93.823377  -14.970164    6.688215
     19          1           0      -96.469460  -12.704964    8.125615
     20          1           0      -95.517841  -10.919673    9.624168
     21          1           0      -91.444873  -13.229114    6.923616
     22          1           0      -92.999338   -9.751626   10.202050
     23          1           0      -89.837569  -11.681901    7.990042
     24          1           0      -90.596817   -9.972262    9.606597
     25          1           0      -94.475742  -11.931635    3.867751
     26          1           0      -95.668960  -12.298375    4.991909
     27          7           0      -94.912704  -15.585036    3.964154
     28          6           0      -95.083961  -16.557778    2.874532
     29          6           0      -95.884393  -15.982327    1.680879
     30          8           0      -95.542846  -16.207139    0.536430
     31          6           0      -93.755375  -17.211383    2.402180
     32          6           0      -94.056932  -18.573301    1.733997
     33          6           0      -92.769777  -17.380823    3.567753
     34          6           0      -92.905125  -19.097514    0.870574
     35          1           0      -94.973722  -15.954400    4.902134
     36          1           0      -95.717634  -17.344239    3.303960
     37          1           0      -93.314956  -16.543747    1.654463
     38          1           0      -94.299418  -19.303619    2.521061
     39          1           0      -94.943760  -18.479393    1.101290
     40          1           0      -93.212741  -17.960788    4.389120
     41          1           0      -91.880443  -17.920628    3.233044
     42          1           0      -92.426100  -16.421883    3.970173
     43          1           0      -92.679665  -18.392877    0.062188
     44          1           0      -93.172119  -20.056123    0.413994
     45          1           0      -91.988191  -19.255008    1.448855
     46          7           0      -97.062491  -15.257875    1.884147
     47          6           0      -97.848726  -14.898254    3.074701
     48          6           0      -97.229041  -13.656872    3.728170
     49          8           0      -97.169061  -13.420429    4.925152
     50          6           0      -98.197357  -16.037711    4.047412
     51          6           0      -99.310140  -15.695571    5.055346
     52          6           0     -100.748693  -15.646874    4.505210
     53          7           0     -100.955446  -14.826317    3.306193
     54          6           0     -100.871415  -13.424084    3.352524
     55          7           0     -100.413852  -12.682584    4.295439
     56          7           0     -101.320211  -12.842405    2.173244
     57          8           0      -96.701925  -12.770643    2.871201
     58          1           0      -96.577172  -13.214921    2.005493
     59          1           0      -97.556245  -15.188134    1.000355
     60          1           0      -98.802190  -14.545167    2.670574
     61          1           0      -98.493325  -16.900527    3.438602
     62          1           0      -97.305884  -16.329221    4.610309
     63          1           0      -99.047637  -14.767353    5.564924
     64          1           0      -99.311029  -16.471938    5.830540
     65          1           0     -101.044220  -16.661797    4.220557
     66          1           0     -101.417852  -15.335868    5.322727
     67          1           0     -101.747046  -15.141306    2.754591
     68          1           0     -100.287058  -13.200201    5.162298
     69          1           0     -101.097631  -13.315606    1.306186
     70          1           0     -101.165303  -11.842377    2.145637
 ---------------------------------------------------------------------

 SCF Done:  E(RB3LYP) =  -1582.20570126     A.U. after    1 cycles

 Alpha  occ. eigenvalues --  -19.32261 -19.27724 -19.25808 -19.23137 -14.57948
 Alpha  occ. eigenvalues --  -14.50453 -14.48549 -14.48223 -14.44528 -14.42628
 Alpha  occ. eigenvalues --  -14.37212 -10.45466 -10.43222 -10.40966 -10.39512
 Alpha  occ. eigenvalues --  -10.36831 -10.36402 -10.35633 -10.33311 -10.33054
 Alpha  occ. eigenvalues --  -10.32115 -10.32086 -10.30874 -10.29777 -10.29221
 Alpha  occ. eigenvalues --  -10.29028 -10.28707 -10.28706 -10.28477 -10.27852
 Alpha  occ. eigenvalues --  -10.27662 -10.27173 -10.26154 -10.24425  -1.23815
 Alpha  occ. eigenvalues --   -1.18254  -1.15519  -1.15098  -1.12652  -1.08499
 Alpha  occ. eigenvalues --   -1.06763  -1.06396  -1.03847  -0.97606  -0.94331
 Alpha  occ. eigenvalues --   -0.93245  -0.92756  -0.90971  -0.90733  -0.88050
 Alpha  occ. eigenvalues --   -0.85141  -0.83849  -0.83406  -0.82451  -0.80388
 Alpha  occ. eigenvalues --   -0.79347  -0.78470  -0.74451  -0.73908  -0.72886
 Alpha  occ. eigenvalues --   -0.72427  -0.72253  -0.71339  -0.70976  -0.69578
 Alpha  occ. eigenvalues --   -0.68993  -0.67408  -0.66587  -0.65626  -0.65280
 Alpha  occ. eigenvalues --   -0.64255  -0.64123  -0.63845  -0.62415  -0.62318
 Alpha  occ. eigenvalues --   -0.60558  -0.59869  -0.59317  -0.58475  -0.57807
 Alpha  occ. eigenvalues --   -0.57314  -0.57020  -0.56740  -0.56199  -0.55937
 Alpha  occ. eigenvalues --   -0.55058  -0.54293  -0.54245  -0.53711  -0.53443
 Alpha  occ. eigenvalues --   -0.52951  -0.52474  -0.52257  -0.51772  -0.51462
 Alpha  occ. eigenvalues --   -0.51045  -0.50663  -0.50384  -0.49849  -0.49460
 Alpha  occ. eigenvalues --   -0.49045  -0.48619  -0.48176  -0.46668  -0.46538
 Alpha  occ. eigenvalues --   -0.46448  -0.45674  -0.45190  -0.44875  -0.44241
 Alpha  occ. eigenvalues --   -0.43860  -0.43486  -0.43217  -0.43021  -0.41876
 Alpha  occ. eigenvalues --   -0.41114  -0.40825  -0.39755  -0.39170  -0.37766
 Alpha  occ. eigenvalues --   -0.37340  -0.36300  -0.34835  -0.34143  -0.32393
 Alpha  occ. eigenvalues --   -0.32047  -0.30921
 Alpha virt. eigenvalues --   -0.13366  -0.13015  -0.11289  -0.10497  -0.07431
 Alpha virt. eigenvalues --   -0.06783  -0.05439  -0.04598  -0.04348  -0.03764
 Alpha virt. eigenvalues --   -0.03453  -0.02187  -0.01487  -0.01210  -0.00504

 Mulliken charges:
               1
     1  N   -0.749952
     2  C   -0.104398
     3  C    0.619782
     4  O   -0.516663
     5  C   -0.400417
     6  C   -0.002796
     7  C    0.008339
     8  C    0.070538
     9  C    0.310563
    10  C   -0.224938
    11  N   -0.679063
    12  C   -0.154091
    13  C   -0.133961
    14  C   -0.148035
    15  H    0.415798
    16  H    0.228467
    17  H    0.191829
    18  H    0.187763
    19  H    0.180499
    20  H    0.350005
    21  H    0.126550
    22  H    0.152601
    23  H    0.150576
    24  H    0.156649
    25  H    0.420204
    26  H    0.435913
    27  N   -0.622127
    28  C   -0.069244
    29  C    0.629802
    30  O   -0.457327
    31  C   -0.066467
    32  C   -0.269680
    33  C   -0.470808
    34  C   -0.455103
    35  H    0.362830
    36  H    0.179294
    37  H    0.177621
    38  H    0.128116
    39  H    0.162326
    40  H    0.135450
    41  H    0.183148
    42  H    0.129136
    43  H    0.164234
    44  H    0.161378
    45  H    0.149608
    46  N   -0.691380
    47  C   -0.059958
    48  C    0.673629
    49  O   -0.517571
    50  C   -0.268137
    51  C   -0.305775
    52  C   -0.141507
    53  N   -0.613854
    54  C    0.549682
    55  N   -0.640235
    56  N   -0.741457
    57  O   -0.584270
    58  H    0.448960
    59  H    0.355458
    60  H    0.234229
    61  H    0.163709
    62  H    0.134440
    63  H    0.177773
    64  H    0.160861
    65  H    0.160657
    66  H    0.166262
    67  H    0.338432
    68  H    0.285820
    69  H    0.321114
    70  H    0.349170
 Sum of Mulliken charges =   1.00000

 Dipole moment (field-independent basis, Debye):
    X=           -461.0925    Y=            -67.2440    Z=             25.0841  Tot=            466.6446
 Quadrupole moment (field-independent basis, Debye-Ang):
   XX=          44107.0858   YY=            778.3518   ZZ=            -38.5731
   XY=           6477.2024   XZ=          -2382.4099   YZ=           -331.6427

 Normal termination of Gaussian 16 at Tue May 24 23:12:43 2022.
