 Gaussian 16, Revision C.01,
 Gaussian 16:  ES64L-G16RevC.01  3-Jul-2019

 ----------------------------------------------------------------------
 # B3LYP/6-31G* empiricaldispersion=gd3 guess=read geom=check nosymm in
 tegral(ultrafinegrid)
 ----------------------------------------------------------------------

 ------------------------------------------------------
 Candidate Structure: Conf:831 Charge calc in gas phase
 ------------------------------------------------------
 Structure from the checkpoint file:  "conf-831.chk"
 Charge =  1 Multiplicity = 1

                          Input orientation:
 ---------------------------------------------------------------------
 Center     Atomic      Atomic             Coordinates (Angstroms)
 Number     Number       Type             X           Y           Z
 ---------------------------------------------------------------------
      1          7           0      -97.471632  -15.146744    4.195068
      2          6           0      -96.650647  -14.830194    2.960172
      3          6           0      -95.208554  -14.884272    3.516246
      4          8           0      -94.934984  -15.857816    4.214855
      5          6           0      -97.184759  -13.528204    2.343046
      6          6           0      -98.648519  -13.627946    2.029100
      7          6           0      -99.674347  -12.945053    2.647150
      8          6           0      -99.257134  -14.497552    1.050417
      9          6           0     -100.659527  -14.286305    1.127625
     10          6           0      -98.754652  -15.421002    0.115153
     11          7           0     -100.879160  -13.338348    2.110801
     12          6           0     -101.564800  -14.970992    0.310119
     13          6           0      -99.649364  -16.102614   -0.698200
     14          6           0     -101.039692  -15.880623   -0.599131
     15          1           0      -97.187365  -16.061484    4.565014
     16          1           0      -96.799953  -15.668592    2.275166
     17          1           0      -96.998474  -12.695857    3.033717
     18          1           0      -96.607490  -13.335295    1.428709
     19          1           0      -99.630790  -12.181042    3.412206
     20          1           0     -101.777267  -12.945250    2.349580
     21          1           0      -97.684795  -15.586744    0.012455
     22          1           0     -102.634373  -14.795734    0.379815
     23          1           0      -99.276948  -16.814272   -1.428692
     24          1           0     -101.712606  -16.428321   -1.251752
     25          1           0      -97.225820  -14.453190    4.942128
     26          1           0      -98.474059  -15.110656    3.972759
     27          7           0      -94.417252  -13.820606    3.286020
     28          6           0      -93.322183  -13.380533    4.172475
     29          6           0      -92.705862  -14.580966    4.917303
     30          8           0      -91.908522  -15.311558    4.358384
     31          6           0      -92.214421  -12.632258    3.396668
     32          6           0      -91.216114  -12.026353    4.407754
     33          6           0      -92.800540  -11.555235    2.471006
     34          6           0      -89.921561  -11.509264    3.771144
     35          1           0      -94.810530  -13.071125    2.734854
     36          1           0      -93.785129  -12.689729    4.883511
     37          1           0      -91.690364  -13.383531    2.795404
     38          1           0      -91.713303  -11.212396    4.957225
     39          1           0      -90.950799  -12.786832    5.152088
     40          1           0      -93.388806  -11.983528    1.650493
     41          1           0      -93.432986  -10.849468    3.027524
     42          1           0      -92.003182  -10.975342    1.999732
     43          1           0      -90.100191  -10.678990    3.079955
     44          1           0      -89.416193  -12.308184    3.216783
     45          1           0      -89.231674  -11.149144    4.541336
     46          7           0      -92.989887  -14.757115    6.256623
     47          6           0      -93.978031  -14.183251    7.177852
     48          6           0      -95.422053  -14.334533    6.657174
     49          8           0      -95.926090  -13.537236    5.867314
     50          6           0      -93.674321  -12.737950    7.621792
     51          6           0      -94.659381  -12.129962    8.639430
     52          6           0      -94.739449  -12.792595   10.027807
     53          7           0      -95.390379  -14.102569   10.025908
     54          6           0      -94.718375  -15.305794   10.054147
     55          7           0      -93.510642  -15.581561   10.367496
     56          7           0      -95.510798  -16.376691    9.520445
     57          8           0      -96.148377  -15.368944    7.062131
     58          1           0      -95.765897  -15.881649    7.847363
     59          1           0      -92.532635  -15.594271    6.600470
     60          1           0      -93.873613  -14.818616    8.052803
     61          1           0      -92.658909  -12.743325    8.035185
     62          1           0      -93.650902  -12.084004    6.745773
     63          1           0      -95.666388  -12.093577    8.200768
     64          1           0      -94.368074  -11.084084    8.796483
     65          1           0      -93.739183  -12.905460   10.455626
     66          1           0      -95.291703  -12.135060   10.708041
     67          1           0      -96.310332  -14.116882    9.603743
     68          1           0      -92.978018  -14.765962   10.667336
     69          1           0      -96.429700  -16.442619    9.959585
     70          1           0      -95.008550  -17.248314    9.683556
 ---------------------------------------------------------------------

 SCF Done:  E(RB3LYP) =  -1582.21239556     A.U. after    1 cycles

 Alpha  occ. eigenvalues --  -19.30512 -19.26600 -19.23745 -19.20176 -14.57129
 Alpha  occ. eigenvalues --  -14.48392 -14.48185 -14.47236 -14.46705 -14.45688
 Alpha  occ. eigenvalues --  -14.39806 -10.44522 -10.41487 -10.39630 -10.38433
 Alpha  occ. eigenvalues --  -10.38195 -10.35146 -10.33292 -10.33171 -10.33129
 Alpha  occ. eigenvalues --  -10.33084 -10.31769 -10.29762 -10.29754 -10.29696
 Alpha  occ. eigenvalues --  -10.28600 -10.28206 -10.28126 -10.27989 -10.27497
 Alpha  occ. eigenvalues --  -10.27237 -10.26691 -10.26265 -10.24426  -1.22093
 Alpha  occ. eigenvalues --   -1.16612  -1.13404  -1.12622  -1.11483  -1.09225
 Alpha  occ. eigenvalues --   -1.08318  -1.04651  -1.01881  -1.00495  -0.95688
 Alpha  occ. eigenvalues --   -0.93904  -0.92717  -0.90391  -0.90166  -0.87441
 Alpha  occ. eigenvalues --   -0.84752  -0.83158  -0.82878  -0.81848  -0.79975
 Alpha  occ. eigenvalues --   -0.78824  -0.78330  -0.73949  -0.72832  -0.72023
 Alpha  occ. eigenvalues --   -0.71969  -0.71765  -0.71020  -0.70313  -0.69471
 Alpha  occ. eigenvalues --   -0.69062  -0.67830  -0.66680  -0.66208  -0.65111
 Alpha  occ. eigenvalues --   -0.64113  -0.63470  -0.62585  -0.61984  -0.61825
 Alpha  occ. eigenvalues --   -0.61098  -0.58752  -0.58468  -0.58305  -0.57482
 Alpha  occ. eigenvalues --   -0.57194  -0.56640  -0.56578  -0.55414  -0.55312
 Alpha  occ. eigenvalues --   -0.54505  -0.53999  -0.53641  -0.53380  -0.52866
 Alpha  occ. eigenvalues --   -0.52523  -0.52231  -0.51844  -0.51326  -0.51187
 Alpha  occ. eigenvalues --   -0.50709  -0.50292  -0.49856  -0.49421  -0.49200
 Alpha  occ. eigenvalues --   -0.48801  -0.48271  -0.48009  -0.46220  -0.45897
 Alpha  occ. eigenvalues --   -0.45424  -0.45163  -0.44879  -0.44790  -0.43888
 Alpha  occ. eigenvalues --   -0.43416  -0.43146  -0.42874  -0.42178  -0.41046
 Alpha  occ. eigenvalues --   -0.40716  -0.40584  -0.39032  -0.38407  -0.37245
 Alpha  occ. eigenvalues --   -0.37158  -0.36609  -0.34622  -0.33951  -0.33850
 Alpha  occ. eigenvalues --   -0.32055  -0.30684
 Alpha virt. eigenvalues --   -0.12972  -0.11276  -0.10757  -0.07503  -0.07038
 Alpha virt. eigenvalues --   -0.06355  -0.05699  -0.04626  -0.04421  -0.02908
 Alpha virt. eigenvalues --   -0.01909  -0.01826  -0.01420  -0.01120  -0.00793

 Mulliken charges:
               1
     1  N   -0.749129
     2  C   -0.113410
     3  C    0.658210
     4  O   -0.531010
     5  C   -0.397772
     6  C    0.001223
     7  C   -0.006488
     8  C    0.093873
     9  C    0.308999
    10  C   -0.217963
    11  N   -0.679849
    12  C   -0.154825
    13  C   -0.134991
    14  C   -0.147354
    15  H    0.419460
    16  H    0.227565
    17  H    0.178099
    18  H    0.195616
    19  H    0.169965
    20  H    0.347830
    21  H    0.129087
    22  H    0.149756
    23  H    0.150466
    24  H    0.155024
    25  H    0.424471
    26  H    0.399035
    27  N   -0.622035
    28  C   -0.021545
    29  C    0.610980
    30  O   -0.484805
    31  C   -0.080630
    32  C   -0.277275
    33  C   -0.492556
    34  C   -0.453215
    35  H    0.359551
    36  H    0.161917
    37  H    0.179021
    38  H    0.126718
    39  H    0.158436
    40  H    0.142966
    41  H    0.142112
    42  H    0.183046
    43  H    0.152395
    44  H    0.164301
    45  H    0.158629
    46  N   -0.619905
    47  C   -0.056788
    48  C    0.652270
    49  O   -0.532556
    50  C   -0.274662
    51  C   -0.296287
    52  C   -0.149536
    53  N   -0.573479
    54  C    0.534654
    55  N   -0.603268
    56  N   -0.803079
    57  O   -0.622353
    58  H    0.469445
    59  H    0.354144
    60  H    0.178930
    61  H    0.167439
    62  H    0.173195
    63  H    0.152439
    64  H    0.170874
    65  H    0.168029
    66  H    0.181757
    67  H    0.324199
    68  H    0.299828
    69  H    0.349767
    70  H    0.371047
 Sum of Mulliken charges =   1.00000

 Dipole moment (field-independent basis, Debye):
    X=           -468.8517    Y=            -65.5563    Z=             26.3209  Tot=            474.1438
 Quadrupole moment (field-independent basis, Debye-Ang):
   XX=          45599.4110   YY=            710.2421   ZZ=              3.3155
   XY=           6422.8933   XZ=          -2543.1447   YZ=           -359.6681

 Normal termination of Gaussian 16 at Tue May 24 23:12:34 2022.
