 Gaussian 16, Revision C.01,
 Gaussian 16:  ES64L-G16RevC.01  3-Jul-2019

 ----------------------------------------------------------------------
 # B3LYP/6-31G* empiricaldispersion=gd3 guess=read geom=check nosymm in
 tegral(ultrafinegrid)
 ----------------------------------------------------------------------

 ------------------------------------------------------
 Candidate Structure: Conf:772 Charge calc in gas phase
 ------------------------------------------------------
 Structure from the checkpoint file:  "conf-772.chk"
 Charge =  1 Multiplicity = 1

                          Input orientation:
 ---------------------------------------------------------------------
 Center     Atomic      Atomic             Coordinates (Angstroms)
 Number     Number       Type             X           Y           Z
 ---------------------------------------------------------------------
      1          7           0      -95.923265  -14.065744    2.280249
      2          6           0      -96.423233  -15.157390    3.196586
      3          6           0      -97.182067  -14.376233    4.290756
      4          8           0      -97.847895  -13.406675    3.934205
      5          6           0      -95.257772  -16.080528    3.593509
      6          6           0      -94.455784  -16.497309    2.396732
      7          6           0      -93.148907  -16.154782    2.132110
      8          6           0      -94.926592  -17.253183    1.259581
      9          6           0      -93.843531  -17.333999    0.342202
     10          6           0      -96.146775  -17.874053    0.930759
     11          7           0      -92.778494  -16.654166    0.903866
     12          6           0      -93.948260  -18.003405   -0.881490
     13          6           0      -96.255388  -18.537164   -0.283908
     14          6           0      -95.167393  -18.598598   -1.180774
     15          1           0      -96.711243  -13.427369    2.100984
     16          1           0      -97.164333  -15.713342    2.614463
     17          1           0      -94.620660  -15.559300    4.313740
     18          1           0      -95.692835  -16.957178    4.093345
     19          1           0      -92.449767  -15.595599    2.739248
     20          1           0      -91.854717  -16.588141    0.503448
     21          1           0      -96.985507  -17.859873    1.622852
     22          1           0      -93.109402  -18.058746   -1.569145
     23          1           0      -97.188553  -19.025105   -0.548388
     24          1           0      -95.283922  -19.127638   -2.121624
     25          1           0      -95.197737  -13.527439    2.807104
     26          1           0      -95.532716  -14.458546    1.418168
     27          7           0      -97.030087  -14.787748    5.561645
     28          6           0      -97.736900  -14.209168    6.712937
     29          6           0      -97.859255  -12.669406    6.580773
     30          8           0      -98.951379  -12.131117    6.606715
     31          6           0      -99.118632  -14.861646    6.969594
     32          6           0      -99.589531  -14.533218    8.403813
     33          6           0      -99.062957  -16.379113    6.738901
     34          6           0     -101.081647  -14.793620    8.634816
     35          1           0      -96.502516  -15.631304    5.732115
     36          1           0      -97.097316  -14.416910    7.578790
     37          1           0      -99.821416  -14.412831    6.259309
     38          1           0      -98.991571  -15.124174    9.114615
     39          1           0      -99.389783  -13.479117    8.617362
     40          1           0      -98.845473  -16.632671    5.695764
     41          1           0      -98.301864  -16.853423    7.374794
     42          1           0     -100.023073  -16.838912    6.986336
     43          1           0     -101.349701  -15.845394    8.486812
     44          1           0     -101.687474  -14.189526    7.950024
     45          1           0     -101.365640  -14.524993    9.657629
     46          7           0      -96.735232  -11.861662    6.515421
     47          6           0      -95.274175  -11.998870    6.528778
     48          6           0      -94.750109  -12.059220    5.076931
     49          8           0      -94.679705  -13.123856    4.465228
     50          6           0      -94.689438  -13.130769    7.382769
     51          6           0      -93.147963  -13.161784    7.445396
     52          6           0      -92.432400  -11.934351    8.042172
     53          7           0      -92.433412  -10.765710    7.164009
     54          6           0      -93.246823   -9.663478    7.332676
     55          7           0      -93.902140   -9.259221    8.351732
     56          7           0      -93.456923   -8.957445    6.102720
     57          8           0      -94.410073  -10.937116    4.471061
     58          1           0      -94.281891  -10.143245    5.085458
     59          1           0      -97.045095  -10.897167    6.462880
     60          1           0      -94.951312  -11.059134    6.971060
     61          1           0      -95.104712  -13.034319    8.392878
     62          1           0      -95.014241  -14.091506    6.977277
     63          1           0      -92.747333  -13.353314    6.439994
     64          1           0      -92.862107  -14.031963    8.049093
     65          1           0      -92.891163  -11.651746    8.993965
     66          1           0      -91.394081  -12.201552    8.267861
     67          1           0      -92.112701  -10.943278    6.220440
     68          1           0      -93.765377   -9.842865    9.175892
     69          1           0      -92.586372   -8.726341    5.622947
     70          1           0      -93.950889   -8.092236    6.316814
 ---------------------------------------------------------------------

 SCF Done:  E(RB3LYP) =  -1582.21255725     A.U. after    1 cycles

 Alpha  occ. eigenvalues --  -19.30135 -19.26370 -19.24079 -19.20624 -14.56939
 Alpha  occ. eigenvalues --  -14.48802 -14.48383 -14.47136 -14.46809 -14.45995
 Alpha  occ. eigenvalues --  -14.39810 -10.44321 -10.41725 -10.39646 -10.38832
 Alpha  occ. eigenvalues --  -10.38459 -10.35456 -10.33978 -10.33565 -10.32929
 Alpha  occ. eigenvalues --  -10.32635 -10.31876 -10.30703 -10.30454 -10.29548
 Alpha  occ. eigenvalues --  -10.28731 -10.28410 -10.28259 -10.27629 -10.27414
 Alpha  occ. eigenvalues --  -10.27403 -10.26107 -10.25213 -10.23637  -1.21849
 Alpha  occ. eigenvalues --   -1.16880  -1.13400  -1.13089  -1.11467  -1.09247
 Alpha  occ. eigenvalues --   -1.08304  -1.05160  -1.01975  -1.00563  -0.95699
 Alpha  occ. eigenvalues --   -0.93882  -0.92694  -0.90886  -0.89886  -0.87380
 Alpha  occ. eigenvalues --   -0.85097  -0.83272  -0.82921  -0.81842  -0.79548
 Alpha  occ. eigenvalues --   -0.78895  -0.78444  -0.74185  -0.72841  -0.72330
 Alpha  occ. eigenvalues --   -0.72059  -0.71874  -0.70717  -0.70141  -0.69706
 Alpha  occ. eigenvalues --   -0.69112  -0.67669  -0.66733  -0.66235  -0.64621
 Alpha  occ. eigenvalues --   -0.64343  -0.63724  -0.62951  -0.62400  -0.61940
 Alpha  occ. eigenvalues --   -0.61201  -0.58902  -0.58619  -0.58113  -0.57839
 Alpha  occ. eigenvalues --   -0.56769  -0.56491  -0.56199  -0.55954  -0.55437
 Alpha  occ. eigenvalues --   -0.54934  -0.54587  -0.53702  -0.53455  -0.52772
 Alpha  occ. eigenvalues --   -0.52659  -0.52537  -0.51794  -0.51277  -0.51194
 Alpha  occ. eigenvalues --   -0.50765  -0.50570  -0.49638  -0.49306  -0.48975
 Alpha  occ. eigenvalues --   -0.48791  -0.47934  -0.47489  -0.46283  -0.45913
 Alpha  occ. eigenvalues --   -0.45677  -0.45542  -0.44905  -0.44795  -0.43430
 Alpha  occ. eigenvalues --   -0.43245  -0.43120  -0.42981  -0.41930  -0.41402
 Alpha  occ. eigenvalues --   -0.40053  -0.39806  -0.39131  -0.38527  -0.37353
 Alpha  occ. eigenvalues --   -0.37127  -0.36954  -0.34590  -0.34411  -0.33876
 Alpha  occ. eigenvalues --   -0.32154  -0.30683
 Alpha virt. eigenvalues --   -0.12718  -0.11205  -0.10512  -0.07919  -0.07089
 Alpha virt. eigenvalues --   -0.06330  -0.05862  -0.04726  -0.04624  -0.03575
 Alpha virt. eigenvalues --   -0.02631  -0.02026  -0.01382  -0.00933  -0.00758

 Mulliken charges:
               1
     1  N   -0.743968
     2  C   -0.115547
     3  C    0.670006
     4  O   -0.526335
     5  C   -0.390693
     6  C    0.001308
     7  C    0.003070
     8  C    0.075767
     9  C    0.310338
    10  C   -0.221870
    11  N   -0.680260
    12  C   -0.155000
    13  C   -0.134503
    14  C   -0.147911
    15  H    0.416239
    16  H    0.223618
    17  H    0.193178
    18  H    0.180932
    19  H    0.167852
    20  H    0.347159
    21  H    0.126889
    22  H    0.150198
    23  H    0.149907
    24  H    0.155375
    25  H    0.427099
    26  H    0.408578
    27  N   -0.620392
    28  C   -0.060875
    29  C    0.631457
    30  O   -0.473444
    31  C   -0.061805
    32  C   -0.267574
    33  C   -0.471180
    34  C   -0.454046
    35  H    0.352269
    36  H    0.162807
    37  H    0.174195
    38  H    0.124072
    39  H    0.161712
    40  H    0.128157
    41  H    0.133376
    42  H    0.178989
    43  H    0.147755
    44  H    0.163692
    45  H    0.158269
    46  N   -0.630700
    47  C   -0.047191
    48  C    0.630256
    49  O   -0.532598
    50  C   -0.287746
    51  C   -0.296089
    52  C   -0.145769
    53  N   -0.575580
    54  C    0.534788
    55  N   -0.600568
    56  N   -0.801474
    57  O   -0.587731
    58  H    0.466885
    59  H    0.350727
    60  H    0.185118
    61  H    0.168387
    62  H    0.154940
    63  H    0.150404
    64  H    0.168006
    65  H    0.167590
    66  H    0.182285
    67  H    0.325489
    68  H    0.299156
    69  H    0.351179
    70  H    0.371376
 Sum of Mulliken charges =   1.00000

 Dipole moment (field-independent basis, Debye):
    X=           -450.7538    Y=            -68.2150    Z=             19.0546  Tot=            456.2843
 Quadrupole moment (field-independent basis, Debye-Ang):
   XX=          42114.6742   YY=            803.4358   ZZ=            -70.8044
   XY=           6426.7238   XZ=          -1785.1742   YZ=           -254.9916

 Normal termination of Gaussian 16 at Tue May 24 23:12:35 2022.
