 Gaussian 16, Revision C.01,
 Gaussian 16:  ES64L-G16RevC.01  3-Jul-2019

 ----------------------------------------------------------------------
 # B3LYP/6-31G* empiricaldispersion=gd3 guess=read geom=check nosymm in
 tegral(ultrafinegrid)
 ----------------------------------------------------------------------

 ------------------------------------------------------
 Candidate Structure: Conf:472 Charge calc in gas phase
 ------------------------------------------------------
 Structure from the checkpoint file:  "conf-472.chk"
 Charge =  1 Multiplicity = 1

                          Input orientation:
 ---------------------------------------------------------------------
 Center     Atomic      Atomic             Coordinates (Angstroms)
 Number     Number       Type             X           Y           Z
 ---------------------------------------------------------------------
      1          7           0      -93.510305  -14.921354    5.358807
      2          6           0      -94.844843  -15.331250    5.929309
      3          6           0      -95.640052  -15.789457    4.686243
      4          8           0      -95.011821  -16.206742    3.712846
      5          6           0      -95.436921  -14.182835    6.777922
      6          6           0      -94.381450  -13.457738    7.557832
      7          6           0      -94.075609  -12.120796    7.446455
      8          6           0      -93.421198  -14.029139    8.473845
      9          6           0      -92.563401  -12.969991    8.883114
     10          6           0      -93.194074  -15.323882    8.982892
     11          7           0      -92.992324  -11.823914    8.240703
     12          6           0      -91.503314  -13.167449    9.773374
     13          6           0      -92.137578  -15.524021    9.861914
     14          6           0      -91.301663  -14.456427   10.251753
     15          1           0      -93.647577  -14.030898    4.844707
     16          1           0      -94.641307  -16.207269    6.552297
     17          1           0      -95.944644  -13.480249    6.111622
     18          1           0      -96.190413  -14.625381    7.443994
     19          1           0      -94.558818  -11.355020    6.854944
     20          1           0      -92.606468  -10.901440    8.377655
     21          1           0      -93.853037  -16.150413    8.727236
     22          1           0      -90.863274  -12.345602   10.080505
     23          1           0      -91.957231  -16.514559   10.268141
     24          1           0      -90.487964  -14.644877   10.945149
     25          1           0      -92.809635  -14.808895    6.100064
     26          1           0      -93.248737  -15.635344    4.661849
     27          7           0      -96.973278  -15.649806    4.750061
     28          6           0      -97.932075  -16.102334    3.726604
     29          6           0      -97.382348  -15.909263    2.288231
     30          8           0      -97.273030  -16.863872    1.540405
     31          6           0      -98.410379  -17.558089    3.954287
     32          6           0      -99.709105  -17.807708    3.155173
     33          6           0      -98.617251  -17.848520    5.448696
     34          6           0     -100.050150  -19.292223    2.989294
     35          1           0      -97.375958  -15.379427    5.636932
     36          1           0      -98.795271  -15.433960    3.832850
     37          1           0      -97.627381  -18.216553    3.562552
     38          1           0     -100.537502  -17.285840    3.657874
     39          1           0      -99.612199  -17.366422    2.158927
     40          1           0      -97.680262  -17.808717    6.015425
     41          1           0      -99.326451  -17.140739    5.901201
     42          1           0      -99.029823  -18.850685    5.588532
     43          1           0     -100.966237  -19.412492    2.401982
     44          1           0     -100.209801  -19.794291    3.949737
     45          1           0      -99.244139  -19.815350    2.462465
     46          7           0      -97.163845  -14.638747    1.776551
     47          6           0      -96.878051  -13.305696    2.325740
     48          6           0      -95.394825  -13.219344    2.701068
     49          8           0      -94.932577  -13.101629    3.830625
     50          6           0      -97.830927  -12.806535    3.419188
     51          6           0      -97.574364  -11.371667    3.926898
     52          6           0      -97.372098  -10.312870    2.837868
     53          7           0      -96.054535  -10.461104    2.226890
     54          6           0      -95.773941   -9.851810    0.983690
     55          7           0      -96.541068   -9.135695    0.255238
     56          7           0      -94.464620  -10.137679    0.582345
     57          8           0      -94.614737  -13.354429    1.619086
     58          1           0      -93.681942  -13.375317    1.903414
     59          1           0      -96.846595  -14.739349    0.817270
     60          1           0      -96.981303  -12.637869    1.468506
     61          1           0      -98.840815  -12.872250    2.998019
     62          1           0      -97.795219  -13.473803    4.280992
     63          1           0      -96.701049  -11.368600    4.591227
     64          1           0      -98.432476  -11.081708    4.544090
     65          1           0      -98.122386  -10.444822    2.049016
     66          1           0      -97.524423   -9.306419    3.256610
     67          1           0      -95.286169  -10.350577    2.881799
     68          1           0      -97.400154   -8.866726    0.734589
     69          1           0      -94.253183  -11.130732    0.600663
     70          1           0      -94.278198   -9.735988   -0.331006
 ---------------------------------------------------------------------

 SCF Done:  E(RB3LYP) =  -1582.20063110     A.U. after    1 cycles

 Alpha  occ. eigenvalues --  -19.33561 -19.28817 -19.26040 -19.21541 -14.58854
 Alpha  occ. eigenvalues --  -14.50457 -14.49498 -14.46475 -14.44211 -14.41627
 Alpha  occ. eigenvalues --  -14.36842 -10.46343 -10.43553 -10.40221 -10.39588
 Alpha  occ. eigenvalues --  -10.36064 -10.35994 -10.34958 -10.34028 -10.33997
 Alpha  occ. eigenvalues --  -10.33137 -10.31987 -10.30694 -10.30622 -10.30097
 Alpha  occ. eigenvalues --  -10.29888 -10.29817 -10.29465 -10.28825 -10.28690
 Alpha  occ. eigenvalues --  -10.28314 -10.27020 -10.25851 -10.24177  -1.24747
 Alpha  occ. eigenvalues --   -1.18748  -1.15698  -1.13984  -1.13317  -1.09471
 Alpha  occ. eigenvalues --   -1.06807  -1.05806  -1.02699  -0.97406  -0.95149
 Alpha  occ. eigenvalues --   -0.94028  -0.92218  -0.90991  -0.90511  -0.88679
 Alpha  occ. eigenvalues --   -0.85411  -0.84510  -0.83979  -0.82857  -0.80237
 Alpha  occ. eigenvalues --   -0.79917  -0.79422  -0.74754  -0.74442  -0.73892
 Alpha  occ. eigenvalues --   -0.73247  -0.72059  -0.71772  -0.70324  -0.69920
 Alpha  occ. eigenvalues --   -0.68332  -0.67380  -0.66790  -0.65642  -0.65035
 Alpha  occ. eigenvalues --   -0.64905  -0.63545  -0.63043  -0.62729  -0.62379
 Alpha  occ. eigenvalues --   -0.62133  -0.59819  -0.59428  -0.58886  -0.57961
 Alpha  occ. eigenvalues --   -0.57366  -0.57299  -0.56957  -0.56057  -0.55642
 Alpha  occ. eigenvalues --   -0.55376  -0.55125  -0.53964  -0.53896  -0.53851
 Alpha  occ. eigenvalues --   -0.53653  -0.53165  -0.53025  -0.52490  -0.52162
 Alpha  occ. eigenvalues --   -0.50695  -0.50580  -0.49841  -0.49763  -0.49409
 Alpha  occ. eigenvalues --   -0.49244  -0.48529  -0.47471  -0.46618  -0.46399
 Alpha  occ. eigenvalues --   -0.46222  -0.46131  -0.45504  -0.45070  -0.44492
 Alpha  occ. eigenvalues --   -0.44263  -0.44194  -0.43780  -0.42869  -0.42600
 Alpha  occ. eigenvalues --   -0.40865  -0.40638  -0.40025  -0.38770  -0.38366
 Alpha  occ. eigenvalues --   -0.35933  -0.35069  -0.34707  -0.33663  -0.33406
 Alpha  occ. eigenvalues --   -0.31903  -0.31663
 Alpha virt. eigenvalues --   -0.14082  -0.12602  -0.11809  -0.09401  -0.08617
 Alpha virt. eigenvalues --   -0.07872  -0.06524  -0.05324  -0.04824  -0.04352
 Alpha virt. eigenvalues --   -0.03551  -0.03021  -0.02083  -0.01913  -0.01531

 Mulliken charges:
               1
     1  N   -0.747215
     2  C   -0.124790
     3  C    0.668208
     4  O   -0.535957
     5  C   -0.392907
     6  C    0.010062
     7  C    0.012581
     8  C    0.052568
     9  C    0.315326
    10  C   -0.236530
    11  N   -0.679710
    12  C   -0.153578
    13  C   -0.131841
    14  C   -0.148070
    15  H    0.424310
    16  H    0.227688
    17  H    0.200107
    18  H    0.183100
    19  H    0.172719
    20  H    0.350852
    21  H    0.129249
    22  H    0.155784
    23  H    0.154025
    24  H    0.160367
    25  H    0.414690
    26  H    0.415117
    27  N   -0.623389
    28  C   -0.058432
    29  C    0.618231
    30  O   -0.467505
    31  C   -0.062418
    32  C   -0.268666
    33  C   -0.475567
    34  C   -0.454918
    35  H    0.355205
    36  H    0.172019
    37  H    0.173449
    38  H    0.128355
    39  H    0.164232
    40  H    0.124701
    41  H    0.137174
    42  H    0.183335
    43  H    0.161577
    44  H    0.148225
    45  H    0.163894
    46  N   -0.617460
    47  C   -0.035461
    48  C    0.664929
    49  O   -0.543136
    50  C   -0.287655
    51  C   -0.293047
    52  C   -0.145537
    53  N   -0.630014
    54  C    0.559291
    55  N   -0.613497
    56  N   -0.755979
    57  O   -0.544021
    58  H    0.419969
    59  H    0.354817
    60  H    0.214212
    61  H    0.174720
    62  H    0.143555
    63  H    0.145661
    64  H    0.163408
    65  H    0.169049
    66  H    0.163832
    67  H    0.325873
    68  H    0.287865
    69  H    0.316460
    70  H    0.346510
 Sum of Mulliken charges =   1.00000

 Dipole moment (field-independent basis, Debye):
    X=           -454.5628    Y=            -66.1290    Z=             29.3513  Tot=            460.2846
 Quadrupole moment (field-independent basis, Debye-Ang):
   XX=          42864.3238   YY=            723.5489   ZZ=            -13.1876
   XY=           6263.4083   XZ=          -2768.0412   YZ=           -404.2313

 Normal termination of Gaussian 16 at Tue May 24 23:12:44 2022.
