 Gaussian 16, Revision C.01,
 Gaussian 16:  ES64L-G16RevC.01  3-Jul-2019

 ----------------------------------------------------------------------
 # B3LYP/6-31G* empiricaldispersion=gd3 guess=read geom=check nosymm in
 tegral(ultrafinegrid)
 ----------------------------------------------------------------------

 ------------------------------------------------------
 Candidate Structure: Conf:268 Charge calc in gas phase
 ------------------------------------------------------
 Structure from the checkpoint file:  "conf-268.chk"
 Charge =  1 Multiplicity = 1

                          Input orientation:
 ---------------------------------------------------------------------
 Center     Atomic      Atomic             Coordinates (Angstroms)
 Number     Number       Type             X           Y           Z
 ---------------------------------------------------------------------
      1          7           0      -97.148196  -14.997957    6.093284
      2          6           0      -95.731559  -14.770966    6.599129
      3          6           0      -94.649590  -14.619991    5.521840
      4          8           0      -93.617240  -14.057974    5.847813
      5          6           0      -95.360061  -15.878698    7.617382
      6          6           0      -96.507724  -16.233374    8.514014
      7          6           0      -97.062921  -17.484424    8.662178
      8          6           0      -97.313571  -15.327494    9.302365
      9          6           0      -98.340754  -16.107734    9.903973
     10          6           0      -97.274175  -13.941242    9.558836
     11          7           0      -98.156018  -17.414284    9.495115
     12          6           0      -99.314521  -15.548798   10.737380
     13          6           0      -98.244749  -13.383102   10.380764
     14          6           0      -99.253995  -14.178911   10.962251
     15          1           0      -97.410571  -14.375650    5.280120
     16          1           0      -95.777607  -13.799238    7.088702
     17          1           0      -95.025126  -16.770641    7.072739
     18          1           0      -94.488932  -15.503085    8.165665
     19          1           0      -96.743472  -18.430956    8.246632
     20          1           0      -98.695202  -18.205507    9.814247
     21          1           0      -96.476629  -13.319641    9.159892
     22          1           0     -100.086116  -16.161734   11.193890
     23          1           0      -98.219282  -12.318880   10.594075
     24          1           0      -99.993598  -13.712720   11.605823
     25          1           0      -97.308133  -15.977029    5.834831
     26          1           0      -97.786097  -14.816826    6.881959
     27          7           0      -94.880397  -15.092338    4.264542
     28          6           0      -93.825372  -15.089359    3.234170
     29          6           0      -93.325583  -13.647223    2.939082
     30          8           0      -92.141501  -13.402976    2.844235
     31          6           0      -92.642243  -16.049545    3.519095
     32          6           0      -91.921964  -16.381274    2.191611
     33          6           0      -93.117622  -17.330041    4.219639
     34          6           0      -90.515682  -16.956294    2.387032
     35          1           0      -95.675849  -15.688339    4.086099
     36          1           0      -94.329967  -15.436913    2.325412
     37          1           0      -91.944988  -15.519153    4.174302
     38          1           0      -92.542984  -17.089866    1.621880
     39          1           0      -91.838656  -15.473139    1.587620
     40          1           0      -93.911291  -17.831283    3.648051
     41          1           0      -92.290752  -18.038261    4.316829
     42          1           0      -93.489292  -17.135350    5.231311
     43          1           0      -89.879718  -16.239996    2.918983
     44          1           0      -90.046961  -17.166388    1.420080
     45          1           0      -90.522896  -17.891797    2.957252
     46          7           0      -94.253649  -12.612141    2.751795
     47          6           0      -95.673493  -12.730024    2.391165
     48          6           0      -96.488000  -12.954385    3.657829
     49          8           0      -97.501587  -13.638415    3.735818
     50          6           0      -96.049685  -13.677992    1.232501
     51          6           0      -97.156205  -13.133956    0.309616
     52          6           0      -96.730466  -12.049545   -0.701708
     53          7           0      -96.519968  -10.711108   -0.146417
     54          6           0      -95.283644  -10.246619    0.291001
     55          7           0      -94.176311  -10.908081    0.385373
     56          7           0      -95.323027   -8.924235    0.690144
     57          8           0      -96.031113  -12.317178    4.740552
     58          1           0      -95.118057  -12.006747    4.526575
     59          1           0      -93.813854  -11.838716    2.236065
     60          1           0      -95.949340  -11.714796    2.091571
     61          1           0      -95.146550  -13.871251    0.642783
     62          1           0      -96.377866  -14.639462    1.641679
     63          1           0      -97.993946  -12.762045    0.912311
     64          1           0      -97.545160  -13.976031   -0.276099
     65          1           0      -95.841841  -12.384631   -1.255968
     66          1           0      -97.527435  -11.953158   -1.444506
     67          1           0      -97.107558   -9.990586   -0.547250
     68          1           0      -94.219662  -11.790098   -0.124035
     69          1           0      -96.148085   -8.599195    1.177491
     70          1           0      -94.446945   -8.587628    1.068037
 ---------------------------------------------------------------------

 SCF Done:  E(RB3LYP) =  -1582.20353237     A.U. after    1 cycles

 Alpha  occ. eigenvalues --  -19.32362 -19.27994 -19.24522 -19.22025 -14.58607
 Alpha  occ. eigenvalues --  -14.49686 -14.48922 -14.46013 -14.44802 -14.43134
 Alpha  occ. eigenvalues --  -14.37887 -10.45622 -10.42382 -10.39444 -10.39135
 Alpha  occ. eigenvalues --  -10.37723 -10.35619 -10.34676 -10.33454 -10.32990
 Alpha  occ. eigenvalues --  -10.32590 -10.32263 -10.30397 -10.30096 -10.29543
 Alpha  occ. eigenvalues --  -10.29193 -10.29104 -10.28934 -10.28316 -10.28127
 Alpha  occ. eigenvalues --  -10.27884 -10.26825 -10.25661 -10.23969  -1.23961
 Alpha  occ. eigenvalues --   -1.17122  -1.15520  -1.14071  -1.13243  -1.08900
 Alpha  occ. eigenvalues --   -1.06997  -1.05625  -1.02544  -0.97991  -0.94489
 Alpha  occ. eigenvalues --   -0.93272  -0.93232  -0.90457  -0.90188  -0.88245
 Alpha  occ. eigenvalues --   -0.84652  -0.83951  -0.83537  -0.82500  -0.79920
 Alpha  occ. eigenvalues --   -0.79049  -0.78319  -0.73890  -0.73637  -0.72786
 Alpha  occ. eigenvalues --   -0.72400  -0.71924  -0.71732  -0.70927  -0.69647
 Alpha  occ. eigenvalues --   -0.68576  -0.67759  -0.66978  -0.65701  -0.64877
 Alpha  occ. eigenvalues --   -0.64380  -0.64293  -0.63056  -0.62879  -0.61705
 Alpha  occ. eigenvalues --   -0.60847  -0.59764  -0.59162  -0.58583  -0.57529
 Alpha  occ. eigenvalues --   -0.57436  -0.56641  -0.56204  -0.55656  -0.55407
 Alpha  occ. eigenvalues --   -0.54635  -0.54222  -0.54011  -0.53423  -0.53191
 Alpha  occ. eigenvalues --   -0.53081  -0.52962  -0.52240  -0.51504  -0.51305
 Alpha  occ. eigenvalues --   -0.50845  -0.50409  -0.50141  -0.49739  -0.49024
 Alpha  occ. eigenvalues --   -0.48527  -0.48455  -0.47453  -0.46167  -0.46045
 Alpha  occ. eigenvalues --   -0.45751  -0.45486  -0.45285  -0.44883  -0.44370
 Alpha  occ. eigenvalues --   -0.43874  -0.43655  -0.43605  -0.42544  -0.42108
 Alpha  occ. eigenvalues --   -0.40608  -0.40283  -0.38829  -0.38316  -0.37822
 Alpha  occ. eigenvalues --   -0.36826  -0.35629  -0.34854  -0.34484  -0.32862
 Alpha  occ. eigenvalues --   -0.32363  -0.31333
 Alpha virt. eigenvalues --   -0.13577  -0.12048  -0.10683  -0.10492  -0.08900
 Alpha virt. eigenvalues --   -0.08122  -0.05001  -0.04626  -0.04442  -0.03511
 Alpha virt. eigenvalues --   -0.02495  -0.02267  -0.01782  -0.01373  -0.00653

 Mulliken charges:
               1
     1  N   -0.788970
     2  C   -0.109710
     3  C    0.644019
     4  O   -0.488191
     5  C   -0.375993
     6  C    0.020306
     7  C    0.000360
     8  C    0.044372
     9  C    0.317215
    10  C   -0.238119
    11  N   -0.678441
    12  C   -0.153765
    13  C   -0.131670
    14  C   -0.147693
    15  H    0.447715
    16  H    0.232609
    17  H    0.172377
    18  H    0.222486
    19  H    0.174763
    20  H    0.350827
    21  H    0.142491
    22  H    0.154337
    23  H    0.152645
    24  H    0.158255
    25  H    0.389371
    26  H    0.418830
    27  N   -0.652293
    28  C   -0.062243
    29  C    0.616914
    30  O   -0.445044
    31  C   -0.062834
    32  C   -0.270547
    33  C   -0.478640
    34  C   -0.454490
    35  H    0.327027
    36  H    0.170406
    37  H    0.184198
    38  H    0.123182
    39  H    0.161761
    40  H    0.126552
    41  H    0.180544
    42  H    0.136099
    43  H    0.166943
    44  H    0.159338
    45  H    0.146838
    46  N   -0.690468
    47  C   -0.067422
    48  C    0.659095
    49  O   -0.530549
    50  C   -0.287535
    51  C   -0.267221
    52  C   -0.154567
    53  N   -0.603703
    54  C    0.586864
    55  N   -0.673696
    56  N   -0.742932
    57  O   -0.578394
    58  H    0.454094
    59  H    0.387821
    60  H    0.223256
    61  H    0.162271
    62  H    0.148671
    63  H    0.160986
    64  H    0.160108
    65  H    0.161843
    66  H    0.171995
    67  H    0.341458
    68  H    0.288739
    69  H    0.330700
    70  H    0.354453
 Sum of Mulliken charges =   1.00000

 Dipole moment (field-independent basis, Debye):
    X=           -469.4215    Y=            -71.6286    Z=             23.7898  Tot=            475.4504
 Quadrupole moment (field-independent basis, Debye-Ang):
   XX=          45664.5204   YY=            921.4229   ZZ=            -12.6538
   XY=           6991.1257   XZ=          -2337.1043   YZ=           -386.1599

 Normal termination of Gaussian 16 at Tue May 24 23:12:44 2022.
