 Gaussian 16, Revision C.01,
 Gaussian 16:  ES64L-G16RevC.01  3-Jul-2019

 ----------------------------------------------------------------------
 # B3LYP/6-31G* empiricaldispersion=gd3 guess=read geom=check nosymm in
 tegral(ultrafinegrid)
 ----------------------------------------------------------------------

 ------------------------------------------------------
 Candidate Structure: Conf:123 Charge calc in gas phase
 ------------------------------------------------------
 Structure from the checkpoint file:  "conf-123.chk"
 Charge =  1 Multiplicity = 1

                          Input orientation:
 ---------------------------------------------------------------------
 Center     Atomic      Atomic             Coordinates (Angstroms)
 Number     Number       Type             X           Y           Z
 ---------------------------------------------------------------------
      1          7           0       -8.588732    2.501043   -7.039538
      2          6           0       -8.701824    1.068502   -7.307650
      3          6           0       -7.724696    0.240198   -6.453007
      4          8           0       -6.704405    0.743119   -5.994964
      5          6           0       -8.362101    0.725532   -8.774608
      6          6           0       -9.184757    1.366188   -9.882208
      7          7           0       -9.609289    2.615146   -9.678927
      8          8           0       -9.387580    0.746061  -10.946201
      9          1           0       -9.732942    0.763012   -7.093669
     10          1           0       -7.308661    0.967180   -8.971776
     11          1           0       -8.452418   -0.352516   -8.899758
     12          1           0      -10.132472    3.081541  -10.408765
     13          1           0       -9.399351    3.065277   -8.783117
     14          1           0       -9.010711    2.705374   -6.133992
     15          1           0       -7.597599    2.727545   -6.938183
     16          7           0       -7.995585   -1.102300   -6.358608
     17          6           0       -7.328261   -1.920877   -5.342296
     18          6           0       -6.712091   -3.173778   -5.985355
     19          8           0       -7.081922   -4.309845   -5.667171
     20          6           0       -8.298861   -2.265696   -4.189024
     21          6           0       -9.046724   -1.021362   -3.760315
     22          6           0       -8.392422   -0.000440   -3.058860
     23          6           0      -10.369148   -0.810444   -4.173364
     24          6           0       -9.037762    1.206814   -2.789179
     25          6           0      -11.020468    0.396236   -3.906183
     26          6           0      -10.352017    1.411961   -3.218761
     27          1           0       -8.940619   -1.385955   -6.591507
     28          1           0       -6.517865   -1.295550   -4.955312
     29          1           0       -8.990722   -3.045061   -4.524781
     30          1           0       -7.719082   -2.700195   -3.367884
     31          1           0       -7.364425   -0.144506   -2.734875
     32          1           0      -10.897987   -1.601162   -4.702826
     33          1           0       -8.515323    1.986774   -2.242602
     34          1           0      -12.049244    0.538078   -4.225722
     35          1           0      -10.857157    2.349149   -3.002544
     36          7           0       -5.741736   -3.002930   -6.926061
     37          6           0       -5.225589   -1.788649   -7.545893
     38          6           0       -5.787476   -1.531102   -8.964705
     39          8           0       -5.309882   -0.640704   -9.659543
     40          6           0       -3.686574   -1.780924   -7.601958
     41          6           0       -3.107099   -2.899032   -8.461309
     42          7           0       -1.855134   -2.712001   -8.916740
     43          8           0       -3.746510   -3.933321   -8.704968
     44          1           0       -5.331146   -3.857697   -7.287442
     45          1           0       -5.514338   -0.921385   -6.949183
     46          1           0       -3.289441   -1.885301   -6.584986
     47          1           0       -3.370410   -0.807577   -7.986862
     48          1           0       -1.419248   -3.438866   -9.469202
     49          1           0       -1.349271   -1.849549   -8.774135
     50          7           0       -6.823664   -2.312341   -9.363028
     51          6           0       -7.464256   -2.158309  -10.666555
     52          6           0       -8.919779   -2.622335  -10.470059
     53          8           0       -9.168128   -3.769253  -10.093577
     54          6           0       -6.744870   -2.894413  -11.858755
     55          6           0       -5.597487   -3.869159  -11.517816
     56          6           0       -6.005596   -5.315980  -11.194576
     57          7           0       -6.981084   -5.405088  -10.109352
     58          6           0       -6.781743   -5.739454   -8.840740
     59          7           0       -5.567632   -6.091037   -8.367954
     60          7           0       -7.835233   -5.775553   -7.998074
     61          8           0       -9.887934   -1.768600  -10.672461
     62          1           0       -9.594572   -0.812161  -10.871449
     63          1           0       -7.143170   -3.051287   -8.754639
     64          1           0       -7.456759   -1.090358  -10.892024
     65          1           0       -7.497698   -3.403068  -12.474502
     66          1           0       -6.322903   -2.106473  -12.487890
     67          1           0       -4.940056   -3.925200  -12.393786
     68          1           0       -4.991261   -3.471934  -10.701375
     69          1           0       -6.470067   -5.779332  -12.072311
     70          1           0       -5.128374   -5.917376  -10.942303
     71          1           0       -7.880359   -4.936550  -10.283190
     72          1           0       -5.515746   -6.407257   -7.408420
     73          1           0       -4.736355   -5.633538   -8.732448
     74          1           0       -7.665950   -5.519703   -7.021749
     75          1           0       -8.746963   -5.541165   -8.373278
 ---------------------------------------------------------------------

 SCF Done:  E(RB3LYP) =  -1917.52811973     A.U. after    2 cycles

 Alpha  occ. eigenvalues --  -19.28234 -19.24832 -19.24767 -19.24109 -19.23359
 Alpha  occ. eigenvalues --  -19.22597 -19.22564 -14.48879 -14.48654 -14.48246
 Alpha  occ. eigenvalues --  -14.48100 -14.47945 -14.47670 -14.47670 -14.44980
 Alpha  occ. eigenvalues --  -14.42938 -10.45248 -10.43103 -10.42202 -10.41249
 Alpha  occ. eigenvalues --  -10.39936 -10.39786 -10.39767 -10.35463 -10.34827
 Alpha  occ. eigenvalues --  -10.34562 -10.34017 -10.33960 -10.31824 -10.30228
 Alpha  occ. eigenvalues --  -10.29900 -10.29363 -10.28960 -10.28507 -10.27653
 Alpha  occ. eigenvalues --  -10.27538 -10.27405 -10.27343 -10.27296  -1.20373
 Alpha  occ. eigenvalues --   -1.16379  -1.15815  -1.15120  -1.14647  -1.14001
 Alpha  occ. eigenvalues --   -1.13758  -1.11643  -1.05306  -1.04068  -1.03602
 Alpha  occ. eigenvalues --   -1.03122  -1.03103  -1.01680  -1.01218  -0.99284
 Alpha  occ. eigenvalues --   -0.94186  -0.90670  -0.89854  -0.89037  -0.86740
 Alpha  occ. eigenvalues --   -0.86004  -0.83348  -0.82835  -0.80704  -0.79035
 Alpha  occ. eigenvalues --   -0.77289  -0.76022  -0.75856  -0.72569  -0.72193
 Alpha  occ. eigenvalues --   -0.70996  -0.70487  -0.70199  -0.70040  -0.69412
 Alpha  occ. eigenvalues --   -0.68619  -0.68269  -0.67164  -0.66992  -0.66443
 Alpha  occ. eigenvalues --   -0.65582  -0.64455  -0.63461  -0.62980  -0.62416
 Alpha  occ. eigenvalues --   -0.62251  -0.61837  -0.60340  -0.59867  -0.59449
 Alpha  occ. eigenvalues --   -0.59185  -0.58570  -0.58363  -0.57546  -0.57011
 Alpha  occ. eigenvalues --   -0.56632  -0.55997  -0.55508  -0.55444  -0.54798
 Alpha  occ. eigenvalues --   -0.54644  -0.54186  -0.53936  -0.53731  -0.53256
 Alpha  occ. eigenvalues --   -0.52818  -0.52553  -0.52392  -0.51712  -0.51502
 Alpha  occ. eigenvalues --   -0.50924  -0.50739  -0.50314  -0.50106  -0.49731
 Alpha  occ. eigenvalues --   -0.49579  -0.48850  -0.48562  -0.47840  -0.47529
 Alpha  occ. eigenvalues --   -0.46825  -0.46059  -0.45600  -0.45440  -0.44788
 Alpha  occ. eigenvalues --   -0.44657  -0.44265  -0.42549  -0.42392  -0.41734
 Alpha  occ. eigenvalues --   -0.40729  -0.40200  -0.39625  -0.39286  -0.38922
 Alpha  occ. eigenvalues --   -0.38569  -0.38100  -0.37881  -0.37204  -0.36914
 Alpha  occ. eigenvalues --   -0.36664  -0.36243  -0.35404  -0.34865  -0.33455
 Alpha  occ. eigenvalues --   -0.33003
 Alpha virt. eigenvalues --   -0.11198  -0.10902  -0.10563  -0.09986  -0.09752
 Alpha virt. eigenvalues --   -0.08966  -0.08666  -0.08130  -0.07852  -0.04647
 Alpha virt. eigenvalues --   -0.03400  -0.02873  -0.01163  -0.00754  -0.00309

 Mulliken charges:
               1
     1  N   -0.732456
     2  C   -0.081391
     3  C    0.614449
     4  O   -0.515716
     5  C   -0.393216
     6  C    0.627960
     7  N   -0.726669
     8  O   -0.574280
     9  H    0.167189
    10  H    0.217998
    11  H    0.159032
    12  H    0.359396
    13  H    0.398093
    14  H    0.333563
    15  H    0.336329
    16  N   -0.603556
    17  C   -0.080441
    18  C    0.621543
    19  O   -0.544927
    20  C   -0.368655
    21  C    0.166140
    22  C   -0.167559
    23  C   -0.209117
    24  C   -0.130922
    25  C   -0.134001
    26  C   -0.143501
    27  H    0.338797
    28  H    0.210294
    29  H    0.167373
    30  H    0.182812
    31  H    0.138700
    32  H    0.129990
    33  H    0.152236
    34  H    0.149388
    35  H    0.151113
    36  N   -0.641926
    37  C   -0.086402
    38  C    0.644643
    39  O   -0.532894
    40  C   -0.376988
    41  C    0.632854
    42  N   -0.726343
    43  O   -0.569592
    44  H    0.359905
    45  H    0.229728
    46  H    0.202203
    47  H    0.208697
    48  H    0.364563
    49  H    0.368647
    50  N   -0.639112
    51  C   -0.034676
    52  C    0.585192
    53  O   -0.521861
    54  C   -0.313462
    55  C   -0.284770
    56  C   -0.169815
    57  N   -0.594638
    58  C    0.710043
    59  N   -0.764128
    60  N   -0.769913
    61  O   -0.565416
    62  H    0.478024
    63  H    0.348486
    64  H    0.201103
    65  H    0.168088
    66  H    0.189468
    67  H    0.168351
    68  H    0.183988
    69  H    0.188662
    70  H    0.179043
    71  H    0.405589
    72  H    0.371867
    73  H    0.405967
    74  H    0.402290
    75  H    0.378547
 Sum of Mulliken charges =   1.00000

 Dipole moment (field-independent basis, Debye):
    X=            -29.1451    Y=            -10.3174    Z=            -38.4698  Tot=             49.3539
 Quadrupole moment (field-independent basis, Debye-Ang):
   XX=              3.3268   YY=           -151.1335   ZZ=            108.0363
   XY=             33.0462   XZ=            217.7049   YZ=            102.2956

 Normal termination of Gaussian 16 at Fri Jun  3 06:16:39 2022.
