 Gaussian 16, Revision C.01,
 Gaussian 16:  ES64L-G16RevC.01  3-Jul-2019

 ----------------------------------------------------------------------
 # B3LYP/6-31G* empiricaldispersion=gd3 guess=read geom=check nosymm in
 tegral(ultrafinegrid)
 ----------------------------------------------------------------------

 ------------------------------------------------------
 Candidate Structure: Conf:961 Charge calc in gas phase
 ------------------------------------------------------
 Structure from the checkpoint file:  "conf-961.chk"
 Charge =  1 Multiplicity = 1

                          Input orientation:
 ---------------------------------------------------------------------
 Center     Atomic      Atomic             Coordinates (Angstroms)
 Number     Number       Type             X           Y           Z
 ---------------------------------------------------------------------
      1          7           0       -7.702089    1.330440   -9.009282
      2          6           0       -6.367189    1.509611   -8.339010
      3          6           0       -5.531633    0.218139   -8.255600
      4          8           0       -4.408461    0.194707   -8.744524
      5          6           0       -6.586783    2.112772   -6.949676
      6          6           0       -7.219499    3.498205   -7.026116
      7          7           0       -7.042908    4.267568   -5.931390
      8          8           0       -7.864736    3.867071   -8.012618
      9          1           0       -5.791924    2.189600   -8.968795
     10          1           0       -7.247841    1.465929   -6.361479
     11          1           0       -5.631733    2.142152   -6.417544
     12          1           0       -7.481097    5.178335   -5.895812
     13          1           0       -6.516270    3.940293   -5.132987
     14          1           0       -8.102402    2.282550   -9.084495
     15          1           0       -7.609281    0.836793   -9.912243
     16          7           0       -6.088478   -0.829690   -7.587011
     17          6           0       -5.258013   -1.906043   -7.046088
     18          6           0       -5.591643   -3.304501   -7.612875
     19          8           0       -5.771705   -4.256261   -6.850860
     20          6           0       -5.383155   -1.931032   -5.506053
     21          6           0       -5.251788   -0.561883   -4.873032
     22          6           0       -4.061492    0.175950   -4.961171
     23          6           0       -6.337236   -0.000844   -4.187456
     24          6           0       -3.954662    1.433974   -4.366322
     25          6           0       -6.233282    1.254553   -3.581052
     26          6           0       -5.039757    1.975407   -3.666437
     27          1           0       -6.975290   -0.671595   -7.112998
     28          1           0       -4.231657   -1.673564   -7.350642
     29          1           0       -6.357887   -2.359137   -5.256930
     30          1           0       -4.628938   -2.620638   -5.114141
     31          1           0       -3.209614   -0.237923   -5.495340
     32          1           0       -7.273451   -0.551509   -4.135797
     33          1           0       -3.021072    1.985420   -4.434972
     34          1           0       -7.081039    1.661234   -3.035833
     35          1           0       -4.942413    2.939163   -3.171851
     36          7           0       -5.616441   -3.509045   -8.965119
     37          6           0       -5.812606   -2.546740  -10.044675
     38          6           0       -7.227987   -1.920370  -10.062260
     39          8           0       -7.412111   -0.836358  -10.627974
     40          6           0       -5.500257   -3.192526  -11.407486
     41          6           0       -6.399514   -4.388783  -11.730433
     42          7           0       -6.589376   -4.638690  -13.046261
     43          8           0       -6.900050   -5.093354  -10.849921
     44          1           0       -5.871679   -4.462648   -9.215651
     45          1           0       -5.127640   -1.705470   -9.918898
     46          1           0       -4.459522   -3.539578  -11.405572
     47          1           0       -5.586846   -2.418399  -12.176634
     48          1           0       -7.117113   -5.459629  -13.311443
     49          1           0       -6.181895   -4.072097  -13.775387
     50          7           0       -8.190918   -2.636112   -9.444976
     51          6           0       -9.432079   -2.097404   -8.882025
     52          6           0       -9.033573   -1.580670   -7.466066
     53          8           0       -8.697257   -2.439944   -6.604047
     54          6           0      -10.498809   -3.212316   -8.903932
     55          6           0      -11.666085   -3.051356   -7.898296
     56          6           0      -11.791719   -4.254145   -6.941857
     57          7           0      -10.532881   -4.443156   -6.196956
     58          6           0       -9.680870   -5.462616   -6.387878
     59          7           0      -10.150826   -6.705477   -6.631020
     60          7           0       -8.371902   -5.224240   -6.350412
     61          8           0       -8.940351   -0.332714   -7.302841
     62          1           0       -8.341412    0.728304   -8.419210
     63          1           0       -7.886464   -3.510126   -9.035616
     64          1           0       -9.737457   -1.246469   -9.493315
     65          1           0      -10.878098   -3.291105   -9.927374
     66          1           0       -9.987764   -4.162807   -8.711668
     67          1           0      -11.547168   -2.138989   -7.300438
     68          1           0      -12.621810   -2.941303   -8.421449
     69          1           0      -12.610136   -4.097253   -6.232584
     70          1           0      -12.007717   -5.164494   -7.509725
     71          1           0      -10.029006   -3.564932   -6.025893
     72          1           0       -9.510185   -7.464054   -6.815181
     73          1           0      -11.076043   -6.957847   -6.314990
     74          1           0       -7.668103   -5.946685   -6.301632
     75          1           0       -8.042118   -4.259748   -6.420367
 ---------------------------------------------------------------------

 SCF Done:  E(RB3LYP) =  -1917.52752126     A.U. after    2 cycles

 Alpha  occ. eigenvalues --  -19.22217 -19.21808 -19.21680 -19.21675 -19.21178
 Alpha  occ. eigenvalues --  -19.21083 -19.20775 -14.50917 -14.50098 -14.48125
 Alpha  occ. eigenvalues --  -14.47872 -14.46184 -14.45757 -14.45494 -14.45331
 Alpha  occ. eigenvalues --  -14.44838 -10.45351 -10.39447 -10.39237 -10.39174
 Alpha  occ. eigenvalues --  -10.39038 -10.38669 -10.38535 -10.35152 -10.34039
 Alpha  occ. eigenvalues --  -10.33511 -10.32798 -10.32686 -10.30246 -10.29869
 Alpha  occ. eigenvalues --  -10.29681 -10.29364 -10.28029 -10.27440 -10.27392
 Alpha  occ. eigenvalues --  -10.27354 -10.27174 -10.27105 -10.26972  -1.14782
 Alpha  occ. eigenvalues --   -1.14018  -1.13749  -1.13660  -1.13252  -1.13243
 Alpha  occ. eigenvalues --   -1.12850  -1.07084  -1.05147  -1.03508  -1.03176
 Alpha  occ. eigenvalues --   -1.02360  -1.01979  -1.00956  -1.00461  -1.00280
 Alpha  occ. eigenvalues --   -0.93793  -0.90161  -0.89178  -0.87939  -0.86772
 Alpha  occ. eigenvalues --   -0.84717  -0.82601  -0.82394  -0.78978  -0.78030
 Alpha  occ. eigenvalues --   -0.76931  -0.75523  -0.74652  -0.71742  -0.70464
 Alpha  occ. eigenvalues --   -0.69981  -0.69696  -0.68934  -0.68646  -0.68097
 Alpha  occ. eigenvalues --   -0.67575  -0.67363  -0.67224  -0.65732  -0.65492
 Alpha  occ. eigenvalues --   -0.64550  -0.63402  -0.62827  -0.62797  -0.62521
 Alpha  occ. eigenvalues --   -0.61694  -0.61192  -0.60064  -0.59196  -0.58608
 Alpha  occ. eigenvalues --   -0.57957  -0.57535  -0.57160  -0.56610  -0.56318
 Alpha  occ. eigenvalues --   -0.55648  -0.55414  -0.55035  -0.54172  -0.53976
 Alpha  occ. eigenvalues --   -0.53504  -0.53081  -0.52809  -0.52475  -0.52183
 Alpha  occ. eigenvalues --   -0.51456  -0.51376  -0.50872  -0.50392  -0.50050
 Alpha  occ. eigenvalues --   -0.49999  -0.49812  -0.49675  -0.49008  -0.48664
 Alpha  occ. eigenvalues --   -0.48378  -0.47954  -0.47091  -0.46944  -0.46736
 Alpha  occ. eigenvalues --   -0.46125  -0.45537  -0.45424  -0.45036  -0.44675
 Alpha  occ. eigenvalues --   -0.44357  -0.43434  -0.42013  -0.41821  -0.40830
 Alpha  occ. eigenvalues --   -0.38581  -0.38355  -0.38236  -0.37041  -0.36873
 Alpha  occ. eigenvalues --   -0.36750  -0.36578  -0.36129  -0.35785  -0.35032
 Alpha  occ. eigenvalues --   -0.34830  -0.33969  -0.33579  -0.33351  -0.33289
 Alpha  occ. eigenvalues --   -0.32722
 Alpha virt. eigenvalues --   -0.10404  -0.09820  -0.09456  -0.08969  -0.08517
 Alpha virt. eigenvalues --   -0.08319  -0.07422  -0.06622  -0.06153  -0.05421
 Alpha virt. eigenvalues --   -0.01726  -0.01360  -0.00955  -0.00319   0.00370

 Mulliken charges:
               1
     1  N   -0.802295
     2  C   -0.112289
     3  C    0.624375
     4  O   -0.509625
     5  C   -0.420200
     6  C    0.634216
     7  N   -0.743875
     8  O   -0.535385
     9  H    0.215984
    10  H    0.223261
    11  H    0.209639
    12  H    0.363026
    13  H    0.357485
    14  H    0.415974
    15  H    0.432318
    16  N   -0.650274
    17  C   -0.067608
    18  C    0.618622
    19  O   -0.544832
    20  C   -0.378717
    21  C    0.165836
    22  C   -0.179819
    23  C   -0.201226
    24  C   -0.137824
    25  C   -0.134919
    26  C   -0.162330
    27  H    0.393285
    28  H    0.208573
    29  H    0.180727
    30  H    0.184667
    31  H    0.147791
    32  H    0.153801
    33  H    0.153931
    34  H    0.146908
    35  H    0.144544
    36  N   -0.625756
    37  C   -0.065819
    38  C    0.642467
    39  O   -0.589648
    40  C   -0.394892
    41  C    0.612720
    42  N   -0.734400
    43  O   -0.536690
    44  H    0.361998
    45  H    0.218087
    46  H    0.209532
    47  H    0.190450
    48  H    0.359584
    49  H    0.358214
    50  N   -0.581821
    51  C   -0.050366
    52  C    0.618671
    53  O   -0.614063
    54  C   -0.290638
    55  C   -0.304046
    56  C   -0.170587
    57  N   -0.585116
    58  C    0.756404
    59  N   -0.744618
    60  N   -0.782938
    61  O   -0.598269
    62  H    0.430354
    63  H    0.351992
    64  H    0.170384
    65  H    0.178475
    66  H    0.144384
    67  H    0.177485
    68  H    0.175782
    69  H    0.187620
    70  H    0.169969
    71  H    0.395497
    72  H    0.373690
    73  H    0.378251
    74  H    0.372606
    75  H    0.441307
 Sum of Mulliken charges =   1.00000

 Dipole moment (field-independent basis, Debye):
    X=            -40.5813    Y=            -13.7295    Z=            -38.2211  Tot=             57.4125
 Quadrupole moment (field-independent basis, Debye-Ang):
   XX=            151.0226   YY=            -96.0532   ZZ=            132.0877
   XY=            147.6888   XZ=            313.7808   YZ=            134.3502

 Normal termination of Gaussian 16 at Fri Jun  3 06:26:30 2022.
