 Gaussian 16, Revision C.01,
 Gaussian 16:  ES64L-G16RevC.01  3-Jul-2019

 ----------------------------------------------------------------------
 # B3LYP/6-31G* empiricaldispersion=gd3 guess=read geom=check nosymm in
 tegral(ultrafinegrid)
 ----------------------------------------------------------------------

 ------------------------------------------------------
 Candidate Structure: Conf:305 Charge calc in gas phase
 ------------------------------------------------------
 Structure from the checkpoint file:  "conf-305.chk"
 Charge =  1 Multiplicity = 1

                          Input orientation:
 ---------------------------------------------------------------------
 Center     Atomic      Atomic             Coordinates (Angstroms)
 Number     Number       Type             X           Y           Z
 ---------------------------------------------------------------------
      1          7           0       -7.081172    2.768155   -7.930277
      2          6           0       -6.203520    1.596453   -7.967085
      3          6           0       -6.797608    0.455168   -8.808716
      4          8           0       -7.566421    0.707853   -9.731853
      5          6           0       -5.738060    1.257592   -6.536813
      6          6           0       -4.603581    2.182005   -6.071506
      7          7           0       -4.898989    3.506576   -6.125841
      8          8           0       -3.532940    1.726887   -5.686641
      9          1           0       -5.311275    1.874401   -8.548302
     10          1           0       -6.590570    1.336896   -5.850715
     11          1           0       -5.330672    0.251701   -6.437724
     12          1           0       -4.156409    4.163279   -5.927386
     13          1           0       -5.725716    3.806687   -6.638535
     14          1           0       -7.309033    3.037653   -8.886271
     15          1           0       -7.969043    2.495496   -7.506033
     16          7           0       -6.377926   -0.836944   -8.564204
     17          6           0       -6.244183   -1.758831   -9.692555
     18          6           0       -7.038524   -3.048051   -9.459105
     19          8           0       -6.475869   -4.158645   -9.466843
     20          6           0       -4.749014   -2.038883   -9.991716
     21          6           0       -3.962886   -0.745732   -9.989897
     22          6           0       -4.050056    0.146494  -11.066185
     23          6           0       -3.245033   -0.356272   -8.850615
     24          6           0       -3.439025    1.399619  -11.000070
     25          6           0       -2.641074    0.900357   -8.772104
     26          6           0       -2.740409    1.781991   -9.850888
     27          1           0       -5.657137   -0.933164   -7.861255
     28          1           0       -6.700252   -1.248513  -10.548276
     29          1           0       -4.353760   -2.726692   -9.235616
     30          1           0       -4.679332   -2.563622  -10.949839
     31          1           0       -4.607715   -0.136315  -11.956321
     32          1           0       -3.161492   -1.036345   -8.004329
     33          1           0       -3.512663    2.079738  -11.844013
     34          1           0       -2.130254    1.193303   -7.860797
     35          1           0       -2.273924    2.761475   -9.797845
     36          7           0       -8.382780   -2.978424   -9.281520
     37          6           0       -9.210393   -1.838840   -8.879292
     38          6           0       -9.112417   -1.579462   -7.356511
     39          8           0       -8.930498   -0.440713   -6.903382
     40          6           0      -10.663596   -2.048455   -9.348030
     41          6           0      -11.325027   -3.345127   -8.874907
     42          7           0      -12.661746   -3.403699   -9.020076
     43          8           0      -10.678057   -4.297836   -8.409346
     44          1           0       -8.833656   -3.878070   -9.141242
     45          1           0       -8.844179   -0.927498   -9.354819
     46          1           0      -10.669564   -2.054301  -10.445614
     47          1           0      -11.261703   -1.184910   -9.034904
     48          1           0      -13.139007   -4.268083   -8.797738
     49          1           0      -13.199027   -2.653216   -9.431335
     50          7           0       -9.197942   -2.666494   -6.556044
     51          6           0       -9.116237   -2.588681   -5.095130
     52          6           0       -7.627881   -2.420078   -4.697468
     53          8           0       -6.988947   -3.208894   -4.022838
     54          6           0       -9.884847   -3.730604   -4.380368
     55          6           0      -10.046706   -5.110809   -5.063489
     56          6           0       -8.892349   -6.112868   -4.892453
     57          7           0       -7.567167   -5.595157   -5.236676
     58          6           0       -7.121026   -5.336803   -6.472200
     59          7           0       -7.716350   -5.828841   -7.566040
     60          7           0       -6.033228   -4.565770   -6.625273
     61          8           0       -7.048259   -1.324230   -5.178823
     62          1           0       -7.693718   -0.778026   -5.701592
     63          1           0       -9.420365   -3.552919   -6.994080
     64          1           0       -9.591367   -1.642362   -4.805930
     65          1           0       -9.434333   -3.855846   -3.389568
     66          1           0      -10.896822   -3.350651   -4.211320
     67          1           0      -10.924996   -5.587929   -4.612127
     68          1           0      -10.306507   -5.002405   -6.122050
     69          1           0       -8.818876   -6.420620   -3.845862
     70          1           0       -9.090892   -7.027722   -5.461997
     71          1           0       -7.162128   -5.001164   -4.513619
     72          1           0       -7.356421   -5.547417   -8.482647
     73          1           0       -8.500865   -6.458483   -7.505263
     74          1           0       -5.684906   -4.378105   -7.560057
     75          1           0       -5.630532   -4.086273   -5.830533
 ---------------------------------------------------------------------

 SCF Done:  E(RB3LYP) =  -1917.50358105     A.U. after    1 cycles

 Alpha  occ. eigenvalues --  -19.30256 -19.26273 -19.26074 -19.25560 -19.25223
 Alpha  occ. eigenvalues --  -19.22008 -19.16991 -14.50142 -14.49920 -14.49870
 Alpha  occ. eigenvalues --  -14.49537 -14.49500 -14.48525 -14.46209 -14.40715
 Alpha  occ. eigenvalues --  -14.40636 -10.46761 -10.44372 -10.43606 -10.42321
 Alpha  occ. eigenvalues --  -10.41865 -10.38504 -10.37030 -10.36389 -10.35867
 Alpha  occ. eigenvalues --  -10.34886 -10.34304 -10.33648 -10.31951 -10.31709
 Alpha  occ. eigenvalues --  -10.31548 -10.28880 -10.27758 -10.27437 -10.26583
 Alpha  occ. eigenvalues --  -10.26581 -10.26478 -10.26173 -10.26023  -1.22114
 Alpha  occ. eigenvalues --   -1.17710  -1.17072  -1.16593  -1.15332  -1.13870
 Alpha  occ. eigenvalues --   -1.13562  -1.08707  -1.06520  -1.04854  -1.04820
 Alpha  occ. eigenvalues --   -1.04393  -1.03202  -1.02890  -0.98186  -0.95458
 Alpha  occ. eigenvalues --   -0.93263  -0.92660  -0.91137  -0.88151  -0.87789
 Alpha  occ. eigenvalues --   -0.84086  -0.82425  -0.82141  -0.81833  -0.80580
 Alpha  occ. eigenvalues --   -0.77530  -0.76283  -0.74815  -0.74139  -0.73759
 Alpha  occ. eigenvalues --   -0.72374  -0.72119  -0.71558  -0.70068  -0.68884
 Alpha  occ. eigenvalues --   -0.68539  -0.67774  -0.67415  -0.66369  -0.66164
 Alpha  occ. eigenvalues --   -0.65065  -0.64476  -0.64074  -0.63583  -0.62926
 Alpha  occ. eigenvalues --   -0.61493  -0.61399  -0.60483  -0.59822  -0.59555
 Alpha  occ. eigenvalues --   -0.59029  -0.58487  -0.58368  -0.58264  -0.57816
 Alpha  occ. eigenvalues --   -0.57554  -0.57270  -0.56503  -0.56087  -0.55229
 Alpha  occ. eigenvalues --   -0.54721  -0.54323  -0.53878  -0.53295  -0.53014
 Alpha  occ. eigenvalues --   -0.52802  -0.52687  -0.52160  -0.52143  -0.51025
 Alpha  occ. eigenvalues --   -0.50612  -0.50405  -0.50298  -0.49660  -0.49458
 Alpha  occ. eigenvalues --   -0.49304  -0.48876  -0.48024  -0.47675  -0.47180
 Alpha  occ. eigenvalues --   -0.46790  -0.46497  -0.45754  -0.45378  -0.44831
 Alpha  occ. eigenvalues --   -0.43674  -0.43430  -0.42202  -0.42112  -0.41822
 Alpha  occ. eigenvalues --   -0.41647  -0.41325  -0.41154  -0.40779  -0.39858
 Alpha  occ. eigenvalues --   -0.39535  -0.39055  -0.38143  -0.37024  -0.36458
 Alpha  occ. eigenvalues --   -0.36007  -0.33627  -0.32694  -0.32215  -0.31981
 Alpha  occ. eigenvalues --   -0.30647
 Alpha virt. eigenvalues --   -0.13339  -0.11943  -0.11877  -0.11047  -0.10680
 Alpha virt. eigenvalues --   -0.08231  -0.08009  -0.07772  -0.06139  -0.04487
 Alpha virt. eigenvalues --   -0.03864  -0.03472  -0.02605  -0.01417  -0.00537

 Mulliken charges:
               1
     1  N   -0.717845
     2  C   -0.102422
     3  C    0.615349
     4  O   -0.521694
     5  C   -0.378050
     6  C    0.577182
     7  N   -0.738778
     8  O   -0.511763
     9  H    0.210393
    10  H    0.166974
    11  H    0.168143
    12  H    0.341213
    13  H    0.374420
    14  H    0.330693
    15  H    0.315594
    16  N   -0.622063
    17  C   -0.071203
    18  C    0.634861
    19  O   -0.562796
    20  C   -0.374004
    21  C    0.168804
    22  C   -0.177339
    23  C   -0.214814
    24  C   -0.128367
    25  C   -0.130234
    26  C   -0.142293
    27  H    0.340827
    28  H    0.212781
    29  H    0.150124
    30  H    0.183773
    31  H    0.135070
    32  H    0.126763
    33  H    0.149659
    34  H    0.182810
    35  H    0.151051
    36  N   -0.609800
    37  C   -0.106709
    38  C    0.650323
    39  O   -0.566000
    40  C   -0.396784
    41  C    0.618772
    42  N   -0.723320
    43  O   -0.557050
    44  H    0.363037
    45  H    0.247981
    46  H    0.220321
    47  H    0.203370
    48  H    0.369157
    49  H    0.370100
    50  N   -0.626667
    51  C   -0.091956
    52  C    0.635792
    53  O   -0.497651
    54  C   -0.305223
    55  C   -0.317060
    56  C   -0.180561
    57  N   -0.595862
    58  C    0.786911
    59  N   -0.789811
    60  N   -0.791190
    61  O   -0.582555
    62  H    0.468705
    63  H    0.386076
    64  H    0.209171
    65  H    0.186975
    66  H    0.178675
    67  H    0.181069
    68  H    0.175279
    69  H    0.200451
    70  H    0.176365
    71  H    0.397314
    72  H    0.406505
    73  H    0.376229
    74  H    0.400277
    75  H    0.386524
 Sum of Mulliken charges =   1.00000

 Dipole moment (field-independent basis, Debye):
    X=            -46.9745    Y=            -16.3798    Z=            -37.5341  Tot=             62.3194
 Quadrupole moment (field-independent basis, Debye-Ang):
   XX=            262.0577   YY=           -123.7480   ZZ=             86.6864
   XY=            167.3048   XZ=            357.2015   YZ=            104.7995

 Normal termination of Gaussian 16 at Fri Jun  3 06:16:16 2022.
