 Gaussian 16, Revision C.01,
 Gaussian 16:  ES64L-G16RevC.01  3-Jul-2019

 ----------------------------------------------------------------------
 # B3LYP/6-31G* empiricaldispersion=gd3 guess=read geom=check nosymm in
 tegral(ultrafinegrid)
 ----------------------------------------------------------------------

 ------------------------------------------------------
 Candidate Structure: Conf:879 Charge calc in gas phase
 ------------------------------------------------------
 Structure from the checkpoint file:  "conf-879.chk"
 Charge =  1 Multiplicity = 1

                          Input orientation:
 ---------------------------------------------------------------------
 Center     Atomic      Atomic             Coordinates (Angstroms)
 Number     Number       Type             X           Y           Z
 ---------------------------------------------------------------------
      1          7           0       -9.468307   -3.512833   -7.576166
      2          6           0       -8.424238   -3.699983   -6.554886
      3          6           0       -8.035784   -2.279050   -6.121316
      4          8           0       -8.906737   -1.523694   -5.702538
      5          6           0       -7.277203   -4.559808   -7.120195
      6          6           0       -7.825567   -5.810394   -7.802524
      7          7           0       -7.243281   -6.131917   -9.034769
      8          8           0       -8.755998   -6.451853   -7.355506
      9          1           0       -8.801783   -4.188715   -5.643764
     10          1           0       -6.684642   -3.989193   -7.837495
     11          1           0       -6.623784   -4.884913   -6.298887
     12          1           0       -7.417825   -7.090912   -9.323882
     13          1           0       -6.293993   -5.813229   -9.200140
     14          1           0       -9.967923   -4.392398   -7.697133
     15          1           0      -10.143244   -2.841855   -7.210537
     16          7           0       -6.737733   -1.867152   -6.297661
     17          6           0       -6.250534   -0.645892   -5.642165
     18          6           0       -5.770103    0.313960   -6.741714
     19          8           0       -4.559367    0.468591   -6.978285
     20          6           0       -5.138508   -0.972632   -4.619445
     21          6           0       -5.502937   -2.199122   -3.811535
     22          6           0       -6.574795   -2.173987   -2.909279
     23          6           0       -4.847411   -3.415907   -4.042015
     24          6           0       -6.987843   -3.338566   -2.261971
     25          6           0       -5.256446   -4.584873   -3.393861
     26          6           0       -6.333557   -4.549111   -2.506806
     27          1           0       -6.042770   -2.593538   -6.411920
     28          1           0       -7.113153   -0.220003   -5.125087
     29          1           0       -4.197321   -1.125962   -5.156081
     30          1           0       -4.991673   -0.092923   -3.982757
     31          1           0       -7.098928   -1.239793   -2.721589
     32          1           0       -3.999355   -3.446260   -4.724262
     33          1           0       -7.821229   -3.301875   -1.566342
     34          1           0       -4.728620   -5.517428   -3.574367
     35          1           0       -6.655459   -5.454963   -2.001593
     36          7           0       -6.693696    0.924329   -7.517468
     37          6           0       -8.152647    0.968365   -7.489871
     38          6           0       -8.820198    0.174221   -8.640411
     39          8           0       -9.945211    0.484020   -9.017327
     40          6           0       -8.629288    2.429849   -7.589226
     41          6           0       -8.260279    3.049751   -8.938520
     42          7           0       -9.047077    4.052133   -9.368436
     43          8           0       -7.266913    2.674596   -9.583134
     44          1           0       -6.319295    1.509843   -8.257643
     45          1           0       -8.523923    0.522132   -6.564285
     46          1           0       -8.159377    3.020984   -6.794281
     47          1           0       -9.710831    2.458075   -7.441868
     48          1           0       -8.833198    4.496247  -10.251916
     49          1           0       -9.911455    4.295812   -8.906806
     50          7           0       -8.104428   -0.837844   -9.195614
     51          6           0       -8.745548   -1.744389  -10.147832
     52          6           0       -7.948411   -3.036154  -10.182986
     53          8           0       -6.740768   -3.101090   -9.927332
     54          6           0       -8.966984   -1.114195  -11.548869
     55          6           0       -7.761170   -0.817728  -12.459852
     56          6           0       -6.677948    0.120259  -11.903951
     57          7           0       -5.763383   -0.652533  -11.053468
     58          6           0       -4.942120   -0.179366  -10.122224
     59          7           0       -4.694368    1.134731   -9.987374
     60          7           0       -4.281326   -1.054778   -9.332930
     61          8           0       -8.664069   -4.083312  -10.538420
     62          1           0       -8.142798   -4.901959  -10.328124
     63          1           0       -7.276953   -1.166076   -8.715495
     64          1           0       -9.733895   -2.002173   -9.760532
     65          1           0       -9.641259   -1.784901  -12.093763
     66          1           0       -9.525372   -0.191940  -11.363762
     67          1           0       -7.284320   -1.750216  -12.795219
     68          1           0       -8.160012   -0.354865  -13.369026
     69          1           0       -6.104372    0.564177  -12.725359
     70          1           0       -7.136772    0.927435  -11.321529
     71          1           0       -5.979790   -1.640242  -10.951748
     72          1           0       -4.195195    1.416643   -9.149488
     73          1           0       -5.368258    1.805994  -10.340308
     74          1           0       -3.984499   -0.710154   -8.420228
     75          1           0       -4.580774   -2.020814   -9.371393
 ---------------------------------------------------------------------

 SCF Done:  E(RB3LYP) =  -1917.51751617     A.U. after    1 cycles

 Alpha  occ. eigenvalues --  -19.30566 -19.26887 -19.23872 -19.23822 -19.22944
 Alpha  occ. eigenvalues --  -19.22825 -19.21856 -14.49336 -14.49189 -14.48782
 Alpha  occ. eigenvalues --  -14.47763 -14.47508 -14.47356 -14.47259 -14.46582
 Alpha  occ. eigenvalues --  -14.41300 -10.45609 -10.44729 -10.41320 -10.41011
 Alpha  occ. eigenvalues --  -10.40410 -10.39853 -10.39175 -10.34858 -10.34461
 Alpha  occ. eigenvalues --  -10.34365 -10.34220 -10.32993 -10.31024 -10.30407
 Alpha  occ. eigenvalues --  -10.30334 -10.29559 -10.29023 -10.28579 -10.27733
 Alpha  occ. eigenvalues --  -10.27548 -10.27356 -10.27291 -10.27169  -1.22635
 Alpha  occ. eigenvalues --   -1.15826  -1.15172  -1.14906  -1.14752  -1.14454
 Alpha  occ. eigenvalues --   -1.14006  -1.13401  -1.04757  -1.04046  -1.03806
 Alpha  occ. eigenvalues --   -1.02726  -1.02403  -1.02154  -1.01507  -0.98726
 Alpha  occ. eigenvalues --   -0.94181  -0.91138  -0.89524  -0.88705  -0.86490
 Alpha  occ. eigenvalues --   -0.86351  -0.83254  -0.82849  -0.80551  -0.79136
 Alpha  occ. eigenvalues --   -0.77378  -0.76376  -0.75744  -0.73760  -0.72225
 Alpha  occ. eigenvalues --   -0.71223  -0.70428  -0.69963  -0.69752  -0.68706
 Alpha  occ. eigenvalues --   -0.68221  -0.67924  -0.66920  -0.66755  -0.65526
 Alpha  occ. eigenvalues --   -0.64590  -0.63988  -0.63579  -0.62781  -0.62150
 Alpha  occ. eigenvalues --   -0.61864  -0.61047  -0.60411  -0.60313  -0.59781
 Alpha  occ. eigenvalues --   -0.59433  -0.59248  -0.58465  -0.58043  -0.57525
 Alpha  occ. eigenvalues --   -0.57112  -0.56374  -0.56225  -0.55272  -0.54603
 Alpha  occ. eigenvalues --   -0.54395  -0.53921  -0.53765  -0.53104  -0.52964
 Alpha  occ. eigenvalues --   -0.52729  -0.52415  -0.51730  -0.51508  -0.51418
 Alpha  occ. eigenvalues --   -0.50888  -0.50420  -0.50181  -0.50057  -0.49726
 Alpha  occ. eigenvalues --   -0.49128  -0.48972  -0.48371  -0.48158  -0.47691
 Alpha  occ. eigenvalues --   -0.47269  -0.46774  -0.45840  -0.45791  -0.45517
 Alpha  occ. eigenvalues --   -0.44713  -0.44163  -0.43452  -0.42516  -0.42356
 Alpha  occ. eigenvalues --   -0.41204  -0.40633  -0.39558  -0.39251  -0.39039
 Alpha  occ. eigenvalues --   -0.38804  -0.38102  -0.37861  -0.37060  -0.36595
 Alpha  occ. eigenvalues --   -0.35969  -0.35929  -0.34455  -0.34002  -0.33557
 Alpha  occ. eigenvalues --   -0.32978
 Alpha virt. eigenvalues --   -0.12153  -0.11022  -0.10588  -0.09855  -0.09258
 Alpha virt. eigenvalues --   -0.09209  -0.08818  -0.08439  -0.07892  -0.05100
 Alpha virt. eigenvalues --   -0.02692  -0.02441  -0.01805  -0.00950  -0.00238

 Mulliken charges:
               1
     1  N   -0.770362
     2  C   -0.038527
     3  C    0.624909
     4  O   -0.518049
     5  C   -0.419185
     6  C    0.582914
     7  N   -0.785433
     8  O   -0.457071
     9  H    0.190130
    10  H    0.163314
    11  H    0.195385
    12  H    0.363114
    13  H    0.350519
    14  H    0.339241
    15  H    0.336932
    16  N   -0.632553
    17  C   -0.059900
    18  C    0.613462
    19  O   -0.564193
    20  C   -0.382162
    21  C    0.165665
    22  C   -0.174049
    23  C   -0.213834
    24  C   -0.129060
    25  C   -0.132062
    26  C   -0.130636
    27  H    0.345228
    28  H    0.203830
    29  H    0.171129
    30  H    0.183047
    31  H    0.141068
    32  H    0.125851
    33  H    0.155167
    34  H    0.146597
    35  H    0.154419
    36  N   -0.623984
    37  C   -0.105424
    38  C    0.647521
    39  O   -0.529902
    40  C   -0.369397
    41  C    0.636879
    42  N   -0.726732
    43  O   -0.572580
    44  H    0.371112
    45  H    0.236139
    46  H    0.197613
    47  H    0.203114
    48  H    0.362234
    49  H    0.367337
    50  N   -0.643798
    51  C   -0.007018
    52  C    0.628840
    53  O   -0.558971
    54  C   -0.287656
    55  C   -0.329601
    56  C   -0.149833
    57  N   -0.604263
    58  C    0.749067
    59  N   -0.758426
    60  N   -0.768979
    61  O   -0.558980
    62  H    0.451863
    63  H    0.352244
    64  H    0.218089
    65  H    0.177930
    66  H    0.199518
    67  H    0.158791
    68  H    0.183628
    69  H    0.186030
    70  H    0.201946
    71  H    0.381151
    72  H    0.376679
    73  H    0.402223
    74  H    0.394263
    75  H    0.366490
 Sum of Mulliken charges =   1.00000

 Dipole moment (field-independent basis, Debye):
    X=            -31.8987    Y=             -4.0084    Z=            -42.8639  Tot=             53.5809
 Quadrupole moment (field-independent basis, Debye-Ang):
   XX=             -7.3587   YY=           -148.2473   ZZ=            197.4110
   XY=              0.7316   XZ=            288.1193   YZ=             29.5891

 Normal termination of Gaussian 16 at Fri Jun  3 06:26:24 2022.
