 Gaussian 16, Revision C.01,
 Gaussian 16:  ES64L-G16RevC.01  3-Jul-2019

 ----------------------------------------------------------------------
 # B3LYP/6-31G* empiricaldispersion=gd3 guess=read geom=check nosymm in
 tegral(ultrafinegrid)
 ----------------------------------------------------------------------

 ------------------------------------------------------
 Candidate Structure: Conf:306 Charge calc in gas phase
 ------------------------------------------------------
 Structure from the checkpoint file:  "conf-306.chk"
 Charge =  1 Multiplicity = 1

                          Input orientation:
 ---------------------------------------------------------------------
 Center     Atomic      Atomic             Coordinates (Angstroms)
 Number     Number       Type             X           Y           Z
 ---------------------------------------------------------------------
      1          7           0       -7.433250    1.130610   -6.456171
      2          6           0       -6.828659    1.444662   -7.794017
      3          6           0       -7.120002    0.395138   -8.878854
      4          8           0       -7.559114    0.754983   -9.964400
      5          6           0       -5.314664    1.614038   -7.627898
      6          6           0       -4.967731    2.774245   -6.699922
      7          7           0       -3.733327    3.291231   -6.867725
      8          8           0       -5.760122    3.184485   -5.845455
      9          1           0       -7.286004    2.372019   -8.141741
     10          1           0       -4.880785    0.696655   -7.212997
     11          1           0       -4.864335    1.749534   -8.614880
     12          1           0       -3.420986    4.026790   -6.247533
     13          1           0       -3.100882    2.938625   -7.573015
     14          1           0       -7.170886    1.925588   -5.843027
     15          1           0       -8.451876    0.982472   -6.533188
     16          7           0       -6.784606   -0.895535   -8.592496
     17          6           0       -6.568169   -1.850646   -9.672001
     18          6           0       -7.422554   -3.119354   -9.527020
     19          8           0       -6.912019   -4.244830   -9.642989
     20          6           0       -5.070450   -2.210836   -9.790583
     21          6           0       -4.163590   -0.996871   -9.826502
     22          6           0       -4.304814   -0.007402  -10.811622
     23          6           0       -3.153834   -0.845064   -8.868092
     24          6           0       -3.455182    1.099276  -10.838893
     25          6           0       -2.293914    0.256750   -8.895251
     26          6           0       -2.442069    1.233728   -9.882405
     27          1           0       -6.421614   -1.129651   -7.662769
     28          1           0       -6.906310   -1.346210  -10.584063
     29          1           0       -4.793610   -2.843952   -8.940475
     30          1           0       -4.937924   -2.829752  -10.684408
     31          1           0       -5.085904   -0.095749  -11.561856
     32          1           0       -3.031717   -1.599818   -8.094771
     33          1           0       -3.576024    1.850735  -11.613911
     34          1           0       -1.503551    0.340598   -8.154055
     35          1           0       -1.761639    2.080621   -9.924967
     36          7           0       -8.756344   -3.010681   -9.299860
     37          6           0       -9.566432   -1.857905   -8.919558
     38          6           0       -9.376641   -1.409428   -7.452063
     39          8           0       -9.711556   -0.264736   -7.126544
     40          6           0      -11.059354   -2.177473   -9.155835
     41          6           0      -11.552659   -3.369188   -8.331010
     42          7           0      -12.795321   -3.267850   -7.821574
     43          8           0      -10.850299   -4.375117   -8.148889
     44          1           0       -9.241042   -3.899178   -9.195999
     45          1           0       -9.304483   -0.991068   -9.531049
     46          1           0      -11.208813   -2.418040  -10.215461
     47          1           0      -11.635678   -1.274882   -8.934598
     48          1           0      -13.190897   -4.065222   -7.339830
     49          1           0      -13.384451   -2.462537   -7.977211
     50          7           0       -8.887317   -2.338756   -6.610213
     51          6           0       -8.489565   -2.116228   -5.219411
     52          6           0       -6.917166   -2.174258   -5.186119
     53          8           0       -6.332784   -3.121504   -4.623444
     54          6           0       -9.269508   -3.011231   -4.211056
     55          6           0       -9.934784   -4.307257   -4.734214
     56          6           0       -9.035983   -5.556289   -4.750905
     57          7           0       -7.715731   -5.307769   -5.324198
     58          6           0       -7.370007   -5.365782   -6.609682
     59          7           0       -8.185192   -5.857860   -7.563940
     60          7           0       -6.137783   -4.951773   -6.959627
     61          8           0       -6.340582   -1.228082   -5.818421
     62          1           0       -7.027588    0.223558   -6.067936
     63          1           0       -8.679080   -3.239030   -7.017542
     64          1           0       -8.757208   -1.077940   -5.010680
     65          1           0       -8.597685   -3.236921   -3.375120
     66          1           0      -10.072264   -2.390174   -3.801470
     67          1           0      -10.784181   -4.542578   -4.082000
     68          1           0      -10.359071   -4.139306   -5.729299
     69          1           0       -8.855812   -5.898694   -3.727289
     70          1           0       -9.518309   -6.387571   -5.275200
     71          1           0       -7.124978   -4.664313   -4.772022
     72          1           0       -7.888428   -5.722511   -8.528540
     73          1           0       -9.184219   -5.894480   -7.408839
     74          1           0       -5.943341   -4.792146   -7.943547
     75          1           0       -5.593467   -4.445763   -6.267193
 ---------------------------------------------------------------------

 SCF Done:  E(RB3LYP) =  -1917.54513439     A.U. after    3 cycles

 Alpha  occ. eigenvalues --  -19.24945 -19.24436 -19.23853 -19.22921 -19.22500
 Alpha  occ. eigenvalues --  -19.21356 -19.21162 -14.51579 -14.48712 -14.48364
 Alpha  occ. eigenvalues --  -14.48288 -14.47959 -14.47645 -14.47609 -14.46637
 Alpha  occ. eigenvalues --  -14.46121 -10.44638 -10.42550 -10.41516 -10.41024
 Alpha  occ. eigenvalues --  -10.40217 -10.40069 -10.39220 -10.36117 -10.36115
 Alpha  occ. eigenvalues --  -10.34686 -10.33765 -10.33732 -10.32740 -10.30852
 Alpha  occ. eigenvalues --  -10.29430 -10.29422 -10.29311 -10.29231 -10.28375
 Alpha  occ. eigenvalues --  -10.28306 -10.28240 -10.28186 -10.28115  -1.16686
 Alpha  occ. eigenvalues --   -1.16083  -1.15612  -1.14916  -1.14508  -1.14093
 Alpha  occ. eigenvalues --   -1.13252  -1.07881  -1.05975  -1.05429  -1.03932
 Alpha  occ. eigenvalues --   -1.03489  -1.03123  -1.02727  -1.01237  -1.01081
 Alpha  occ. eigenvalues --   -0.94913  -0.91059  -0.90160  -0.89697  -0.88208
 Alpha  occ. eigenvalues --   -0.85366  -0.83922  -0.83584  -0.80558  -0.79056
 Alpha  occ. eigenvalues --   -0.78536  -0.76626  -0.75059  -0.72822  -0.71357
 Alpha  occ. eigenvalues --   -0.71031  -0.70472  -0.70326  -0.69843  -0.69553
 Alpha  occ. eigenvalues --   -0.69068  -0.68796  -0.67213  -0.66818  -0.66344
 Alpha  occ. eigenvalues --   -0.66274  -0.65329  -0.63871  -0.63565  -0.62657
 Alpha  occ. eigenvalues --   -0.62012  -0.61301  -0.61251  -0.60571  -0.59871
 Alpha  occ. eigenvalues --   -0.58994  -0.58662  -0.58398  -0.58148  -0.57663
 Alpha  occ. eigenvalues --   -0.56840  -0.56517  -0.56403  -0.55316  -0.55021
 Alpha  occ. eigenvalues --   -0.54948  -0.54518  -0.54148  -0.53948  -0.53100
 Alpha  occ. eigenvalues --   -0.52902  -0.52683  -0.52338  -0.52161  -0.51653
 Alpha  occ. eigenvalues --   -0.51388  -0.51069  -0.50774  -0.50574  -0.49834
 Alpha  occ. eigenvalues --   -0.49644  -0.49447  -0.49004  -0.48509  -0.47882
 Alpha  occ. eigenvalues --   -0.47760  -0.46787  -0.46592  -0.46108  -0.44782
 Alpha  occ. eigenvalues --   -0.44548  -0.44390  -0.43311  -0.43012  -0.41006
 Alpha  occ. eigenvalues --   -0.40058  -0.39721  -0.39240  -0.39019  -0.38763
 Alpha  occ. eigenvalues --   -0.37503  -0.37363  -0.37292  -0.37015  -0.36319
 Alpha  occ. eigenvalues --   -0.36271  -0.35755  -0.35232  -0.34331  -0.34282
 Alpha  occ. eigenvalues --   -0.33872
 Alpha virt. eigenvalues --   -0.11691  -0.10852  -0.10774  -0.09961  -0.09803
 Alpha virt. eigenvalues --   -0.09555  -0.09365  -0.07480  -0.07064  -0.04397
 Alpha virt. eigenvalues --   -0.03334  -0.01968  -0.01726  -0.00887  -0.00336

 Mulliken charges:
               1
     1  N   -0.813715
     2  C   -0.109822
     3  C    0.630375
     4  O   -0.514515
     5  C   -0.415359
     6  C    0.637899
     7  N   -0.741736
     8  O   -0.534124
     9  H    0.217089
    10  H    0.218827
    11  H    0.212162
    12  H    0.365972
    13  H    0.357701
    14  H    0.418505
    15  H    0.427456
    16  N   -0.651724
    17  C   -0.081142
    18  C    0.625787
    19  O   -0.555565
    20  C   -0.356304
    21  C    0.173402
    22  C   -0.178928
    23  C   -0.197375
    24  C   -0.138151
    25  C   -0.136731
    26  C   -0.159205
    27  H    0.389972
    28  H    0.220062
    29  H    0.144199
    30  H    0.194986
    31  H    0.152253
    32  H    0.143474
    33  H    0.158278
    34  H    0.152104
    35  H    0.150147
    36  N   -0.632070
    37  C   -0.060626
    38  C    0.642033
    39  O   -0.583295
    40  C   -0.395636
    41  C    0.626638
    42  N   -0.725815
    43  O   -0.560794
    44  H    0.370198
    45  H    0.221349
    46  H    0.217641
    47  H    0.197528
    48  H    0.366323
    49  H    0.367954
    50  N   -0.605616
    51  C   -0.058854
    52  C    0.602474
    53  O   -0.553209
    54  C   -0.301192
    55  C   -0.302026
    56  C   -0.178599
    57  N   -0.592197
    58  C    0.718783
    59  N   -0.767663
    60  N   -0.781054
    61  O   -0.604570
    62  H    0.430490
    63  H    0.361141
    64  H    0.169750
    65  H    0.177861
    66  H    0.166059
    67  H    0.166687
    68  H    0.165402
    69  H    0.193990
    70  H    0.174154
    71  H    0.403610
    72  H    0.385930
    73  H    0.386702
    74  H    0.398328
    75  H    0.385941
 Sum of Mulliken charges =   1.00000

 Dipole moment (field-independent basis, Debye):
    X=            -39.9222    Y=             -8.7731    Z=            -36.2286  Tot=             54.6192
 Quadrupole moment (field-independent basis, Debye-Ang):
   XX=            186.8860   YY=           -163.6598   ZZ=             58.6510
   XY=            119.6672   XZ=            290.3440   YZ=             55.4475

 Normal termination of Gaussian 16 at Fri Jun  3 06:16:55 2022.
