 Gaussian 16, Revision C.01,
 Gaussian 16:  ES64L-G16RevC.01  3-Jul-2019

 ----------------------------------------------------------------------
 # B3LYP/6-31G* empiricaldispersion=gd3 guess=read geom=check nosymm in
 tegral(ultrafinegrid)
 ----------------------------------------------------------------------

 ------------------------------------------------------
 Candidate Structure: Conf:135 Charge calc in gas phase
 ------------------------------------------------------
 Structure from the checkpoint file:  "conf-135.chk"
 Charge =  1 Multiplicity = 1

                          Input orientation:
 ---------------------------------------------------------------------
 Center     Atomic      Atomic             Coordinates (Angstroms)
 Number     Number       Type             X           Y           Z
 ---------------------------------------------------------------------
      1          7           0      -10.809433    0.717119   -7.859101
      2          6           0       -9.437413    0.229677   -8.013647
      3          6           0       -9.183188   -1.067713   -7.243775
      4          8           0       -9.431448   -1.170818   -6.049350
      5          6           0       -8.439944    1.292973   -7.501576
      6          6           0       -8.174574    2.366629   -8.551282
      7          7           0       -9.278188    3.036251   -8.956948
      8          8           0       -7.042472    2.577735   -8.990701
      9          1           0       -9.259253    0.064452   -9.082420
     10          1           0       -8.840243    1.733776   -6.581543
     11          1           0       -7.485728    0.833054   -7.251164
     12          1           0       -9.189381    3.715150   -9.700712
     13          1           0      -10.196128    2.698265   -8.676944
     14          1           0      -11.462065    0.081741   -8.319747
     15          1           0      -11.046136    0.697170   -6.865894
     16          7           0       -8.598557   -2.083100   -7.973268
     17          6           0       -8.651594   -3.465342   -7.490319
     18          6           0       -7.237380   -4.045245   -7.577210
     19          8           0       -6.923867   -4.848668   -8.479984
     20          6           0       -9.690045   -4.293941   -8.278022
     21          6           0      -10.992698   -3.532939   -8.399252
     22          6           0      -11.828124   -3.359523   -7.287598
     23          6           0      -11.336252   -2.900994   -9.601204
     24          6           0      -12.976341   -2.572703   -7.373953
     25          6           0      -12.487508   -2.114026   -9.695505
     26          6           0      -13.309573   -1.945396   -8.578400
     27          1           0       -8.622094   -1.967571   -8.979741
     28          1           0       -8.958293   -3.396639   -6.443547
     29          1           0       -9.283254   -4.529229   -9.266774
     30          1           0       -9.827000   -5.252520   -7.765108
     31          1           0      -11.572394   -3.835191   -6.343956
     32          1           0      -10.706238   -3.037820  -10.478342
     33          1           0      -13.613598   -2.451405   -6.502813
     34          1           0      -12.746540   -1.644362  -10.640469
     35          1           0      -14.209574   -1.341126   -8.648607
     36          7           0       -6.315297   -3.622426   -6.693958
     37          6           0       -6.324935   -2.570707   -5.677565
     38          6           0       -5.578731   -1.289764   -6.153058
     39          8           0       -4.926937   -0.621352   -5.359946
     40          6           0       -5.608067   -3.087105   -4.417783
     41          6           0       -4.135227   -3.401133   -4.704789
     42          7           0       -3.303754   -3.349274   -3.647422
     43          8           0       -3.737754   -3.731477   -5.833437
     44          1           0       -5.375565   -4.003068   -6.800124
     45          1           0       -7.353140   -2.287278   -5.432174
     46          1           0       -6.099624   -4.003995   -4.072250
     47          1           0       -5.689187   -2.337601   -3.627856
     48          1           0       -2.322783   -3.549088   -3.792501
     49          1           0       -3.587844   -2.971058   -2.755506
     50          7           0       -5.667224   -1.007627   -7.477435
     51          6           0       -5.019240    0.151507   -8.073860
     52          6           0       -5.553242    0.279408   -9.489211
     53          8           0       -6.517299   -0.339639   -9.922268
     54          6           0       -3.473640    0.152960   -7.914430
     55          6           0       -2.739676   -1.184980   -8.088408
     56          6           0       -2.585291   -1.700834   -9.524109
     57          7           0       -3.855641   -2.013100  -10.196627
     58          6           0       -4.648313   -3.061006   -9.940520
     59          7           0       -4.263554   -4.066795   -9.148887
     60          7           0       -5.849158   -3.136372  -10.552232
     61          8           0       -4.850562    1.142280  -10.227963
     62          1           0       -5.406728    1.411672  -10.983796
     63          1           0       -6.400389   -1.448146   -8.021174
     64          1           0       -5.374289    1.078192   -7.599285
     65          1           0       -3.063523    0.915889   -8.583913
     66          1           0       -3.287372    0.487318   -6.892168
     67          1           0       -1.721167   -1.053689   -7.702414
     68          1           0       -3.200094   -1.948266   -7.453100
     69          1           0       -2.097647   -0.948044  -10.148889
     70          1           0       -1.943767   -2.590155   -9.551830
     71          1           0       -4.174075   -1.369820  -10.907304
     72          1           0       -4.996552   -4.713963   -8.845431
     73          1           0       -3.432317   -4.000707   -8.578639
     74          1           0       -6.482129   -3.856128  -10.207722
     75          1           0       -6.278677   -2.255457  -10.815898
 ---------------------------------------------------------------------

 SCF Done:  E(RB3LYP) =  -1917.52149086     A.U. after    2 cycles

 Alpha  occ. eigenvalues --  -19.31540 -19.26718 -19.24341 -19.23148 -19.22820
 Alpha  occ. eigenvalues --  -19.22187 -19.19626 -14.51054 -14.49627 -14.49155
 Alpha  occ. eigenvalues --  -14.47601 -14.47535 -14.46697 -14.46546 -14.43036
 Alpha  occ. eigenvalues --  -14.41941 -10.46514 -10.44816 -10.41204 -10.40704
 Alpha  occ. eigenvalues --  -10.39415 -10.39297 -10.37197 -10.35262 -10.35163
 Alpha  occ. eigenvalues --  -10.34730 -10.34550 -10.32882 -10.30809 -10.29555
 Alpha  occ. eigenvalues --  -10.29276 -10.29149 -10.28906 -10.28370 -10.28105
 Alpha  occ. eigenvalues --  -10.27957 -10.27732 -10.27690 -10.27651  -1.22973
 Alpha  occ. eigenvalues --   -1.16062  -1.15125  -1.14752  -1.14598  -1.14165
 Alpha  occ. eigenvalues --   -1.13756  -1.11062  -1.05088  -1.04775  -1.03752
 Alpha  occ. eigenvalues --   -1.03014  -1.02798  -1.01532  -0.99558  -0.97669
 Alpha  occ. eigenvalues --   -0.94569  -0.91045  -0.89547  -0.88687  -0.86908
 Alpha  occ. eigenvalues --   -0.85540  -0.83477  -0.83200  -0.81192  -0.79145
 Alpha  occ. eigenvalues --   -0.77141  -0.76972  -0.75211  -0.73713  -0.72944
 Alpha  occ. eigenvalues --   -0.71776  -0.70112  -0.69945  -0.69443  -0.68849
 Alpha  occ. eigenvalues --   -0.68360  -0.67294  -0.66961  -0.66632  -0.65386
 Alpha  occ. eigenvalues --   -0.64525  -0.63679  -0.63202  -0.63067  -0.62016
 Alpha  occ. eigenvalues --   -0.61638  -0.60709  -0.60432  -0.60118  -0.59785
 Alpha  occ. eigenvalues --   -0.59467  -0.59359  -0.58579  -0.57877  -0.57504
 Alpha  occ. eigenvalues --   -0.56916  -0.55880  -0.55462  -0.54779  -0.54634
 Alpha  occ. eigenvalues --   -0.54456  -0.54256  -0.53975  -0.53893  -0.53109
 Alpha  occ. eigenvalues --   -0.52546  -0.51895  -0.51732  -0.51299  -0.50996
 Alpha  occ. eigenvalues --   -0.50666  -0.50527  -0.50079  -0.49450  -0.49338
 Alpha  occ. eigenvalues --   -0.49167  -0.48264  -0.47770  -0.47282  -0.47237
 Alpha  occ. eigenvalues --   -0.46991  -0.46811  -0.46152  -0.45360  -0.44772
 Alpha  occ. eigenvalues --   -0.44631  -0.44186  -0.43803  -0.42889  -0.42751
 Alpha  occ. eigenvalues --   -0.41410  -0.40793  -0.39694  -0.39100  -0.38775
 Alpha  occ. eigenvalues --   -0.37920  -0.37781  -0.37503  -0.36758  -0.36269
 Alpha  occ. eigenvalues --   -0.34710  -0.34610  -0.34221  -0.33837  -0.33438
 Alpha  occ. eigenvalues --   -0.33114
 Alpha virt. eigenvalues --   -0.11905  -0.11491  -0.10844  -0.09666  -0.09337
 Alpha virt. eigenvalues --   -0.08922  -0.08708  -0.08107  -0.06187  -0.05220
 Alpha virt. eigenvalues --   -0.03893  -0.03424  -0.01862  -0.01409  -0.00495

 Mulliken charges:
               1
     1  N   -0.730856
     2  C   -0.081673
     3  C    0.616557
     4  O   -0.520105
     5  C   -0.361895
     6  C    0.584967
     7  N   -0.731249
     8  O   -0.547430
     9  H    0.156081
    10  H    0.191781
    11  H    0.173103
    12  H    0.344906
    13  H    0.377164
    14  H    0.331418
    15  H    0.328230
    16  N   -0.630668
    17  C   -0.060972
    18  C    0.610036
    19  O   -0.568554
    20  C   -0.372212
    21  C    0.167804
    22  C   -0.165214
    23  C   -0.202806
    24  C   -0.127386
    25  C   -0.141661
    26  C   -0.147528
    27  H    0.339732
    28  H    0.207864
    29  H    0.163678
    30  H    0.183575
    31  H    0.142272
    32  H    0.124499
    33  H    0.156010
    34  H    0.150938
    35  H    0.155650
    36  N   -0.603837
    37  C   -0.120346
    38  C    0.648611
    39  O   -0.521160
    40  C   -0.365701
    41  C    0.639379
    42  N   -0.728537
    43  O   -0.564193
    44  H    0.374920
    45  H    0.226223
    46  H    0.198346
    47  H    0.199242
    48  H    0.361401
    49  H    0.364474
    50  N   -0.670395
    51  C   -0.023398
    52  C    0.626537
    53  O   -0.537123
    54  C   -0.303113
    55  C   -0.296785
    56  C   -0.177617
    57  N   -0.601491
    58  C    0.786040
    59  N   -0.768786
    60  N   -0.779018
    61  O   -0.558874
    62  H    0.436283
    63  H    0.381392
    64  H    0.232940
    65  H    0.177548
    66  H    0.203094
    67  H    0.172718
    68  H    0.186853
    69  H    0.191359
    70  H    0.182712
    71  H    0.362513
    72  H    0.395703
    73  H    0.388180
    74  H    0.389440
    75  H    0.378415
 Sum of Mulliken charges =   1.00000

 Dipole moment (field-independent basis, Debye):
    X=            -29.9167    Y=             -9.6344    Z=            -39.6471  Tot=             50.5937
 Quadrupole moment (field-independent basis, Debye-Ang):
   XX=             33.8180   YY=           -195.4367   ZZ=            151.8113
   XY=             44.5343   XZ=            256.2301   YZ=             56.8243

 Normal termination of Gaussian 16 at Fri Jun  3 06:16:35 2022.
