 Gaussian 16, Revision C.01,
 Gaussian 16:  ES64L-G16RevC.01  3-Jul-2019

 ----------------------------------------------------------------------
 # B3LYP/6-31G* empiricaldispersion=gd3 guess=read geom=check nosymm in
 tegral(ultrafinegrid)
 ----------------------------------------------------------------------

 ------------------------------------------------------
 Candidate Structure: Conf:549 Charge calc in gas phase
 ------------------------------------------------------
 Structure from the checkpoint file:  "conf-549.chk"
 Charge =  1 Multiplicity = 1

                          Input orientation:
 ---------------------------------------------------------------------
 Center     Atomic      Atomic             Coordinates (Angstroms)
 Number     Number       Type             X           Y           Z
 ---------------------------------------------------------------------
      1          7           0      -10.704132   -0.186942   -8.346816
      2          6           0      -10.421448   -1.469192   -7.703782
      3          6           0       -9.600680   -1.312003   -6.402483
      4          8           0       -9.990780   -0.591151   -5.494540
      5          6           0       -9.823555   -2.443450   -8.738732
      6          6           0      -10.744363   -2.519910   -9.952741
      7          7           0      -10.121696   -2.244467  -11.189276
      8          8           0      -11.927181   -2.757230   -9.867435
      9          1           0      -11.383454   -1.890034   -7.391686
     10          1           0       -8.816872   -2.133376   -9.033284
     11          1           0       -9.754778   -3.454752   -8.319867
     12          1           0      -10.727352   -2.460137  -11.978125
     13          1           0       -9.176265   -2.607961  -11.296630
     14          1           0      -11.363772    0.333458   -7.772941
     15          1           0       -9.864146    0.388028   -8.393037
     16          7           0       -8.392771   -1.974528   -6.328536
     17          6           0       -7.676862   -2.143707   -5.071300
     18          6           0       -6.193821   -1.834118   -5.300706
     19          8           0       -5.312429   -2.685378   -5.105625
     20          6           0       -7.899164   -3.545127   -4.439499
     21          6           0       -7.683707   -4.705894   -5.389243
     22          6           0       -8.698679   -5.082192   -6.282177
     23          6           0       -6.471886   -5.415553   -5.425450
     24          6           0       -8.495860   -6.096501   -7.222806
     25          6           0       -6.269684   -6.439609   -6.355670
     26          6           0       -7.274587   -6.771761   -7.270143
     27          1           0       -8.152533   -2.633362   -7.054081
     28          1           0       -8.094695   -1.396388   -4.387983
     29          1           0       -7.244226   -3.634765   -3.568330
     30          1           0       -8.932881   -3.556704   -4.077540
     31          1           0       -9.665071   -4.587462   -6.226467
     32          1           0       -5.684936   -5.151762   -4.727526
     33          1           0       -9.299898   -6.372637   -7.899777
     34          1           0       -5.329206   -6.984018   -6.359834
     35          1           0       -7.117025   -7.569517   -7.990255
     36          7           0       -5.855786   -0.607400   -5.769207
     37          6           0       -6.683486    0.567511   -6.011267
     38          6           0       -7.191794    0.754007   -7.456780
     39          8           0       -8.229507    1.374128   -7.651330
     40          6           0       -5.898136    1.836780   -5.610967
     41          6           0       -4.592072    2.022301   -6.393699
     42          7           0       -4.115119    3.280929   -6.439990
     43          8           0       -3.994724    1.078236   -6.935698
     44          1           0       -4.864189   -0.465278   -5.930876
     45          1           0       -7.592565    0.520633   -5.407812
     46          1           0       -5.644502    1.777319   -4.544824
     47          1           0       -6.551501    2.705320   -5.742685
     48          1           0       -3.213116    3.445487   -6.868396
     49          1           0       -4.577586    4.055947   -5.985846
     50          7           0       -6.402480    0.279350   -8.463015
     51          6           0       -6.641280    0.697454   -9.846669
     52          6           0       -7.548406   -0.340380  -10.521909
     53          8           0       -7.221722   -1.519580  -10.701859
     54          6           0       -5.330559    0.998022  -10.604807
     55          6           0       -4.394539   -0.143814  -11.050256
     56          6           0       -3.781938   -1.018444   -9.944598
     57          7           0       -4.757469   -2.024605   -9.505947
     58          6           0       -4.774711   -2.645401   -8.327836
     59          7           0       -3.790397   -2.505177   -7.426685
     60          7           0       -5.829398   -3.434456   -8.026029
     61          8           0       -8.728128    0.146767  -10.825349
     62          1           0       -9.365572   -0.588480  -11.089262
     63          1           0       -5.467306    0.006913   -8.198476
     64          1           0       -7.221887    1.622143   -9.798933
     65          1           0       -5.610380    1.555846  -11.505906
     66          1           0       -4.767134    1.696967   -9.973182
     67          1           0       -4.896515   -0.789529  -11.780023
     68          1           0       -3.562049    0.325411  -11.585442
     69          1           0       -2.889102   -1.528167  -10.323629
     70          1           0       -3.472565   -0.383726   -9.101482
     71          1           0       -5.639045   -2.033474  -10.034806
     72          1           0       -4.024127   -2.721024   -6.448730
     73          1           0       -3.096977   -1.784090   -7.570595
     74          1           0       -5.786623   -4.044474   -7.212851
     75          1           0       -6.421884   -3.759572   -8.777847
 ---------------------------------------------------------------------

 SCF Done:  E(RB3LYP) =  -1917.51396962     A.U. after    3 cycles

 Alpha  occ. eigenvalues --  -19.30374 -19.27089 -19.25414 -19.24107 -19.23380
 Alpha  occ. eigenvalues --  -19.21444 -19.20752 -14.50105 -14.50060 -14.49864
 Alpha  occ. eigenvalues --  -14.48999 -14.47964 -14.47952 -14.46154 -14.45654
 Alpha  occ. eigenvalues --  -14.38709 -10.46730 -10.44656 -10.42992 -10.41126
 Alpha  occ. eigenvalues --  -10.40479 -10.38817 -10.37811 -10.36064 -10.35999
 Alpha  occ. eigenvalues --  -10.35712 -10.34184 -10.32942 -10.31789 -10.31710
 Alpha  occ. eigenvalues --  -10.31415 -10.29701 -10.29300 -10.29039 -10.28946
 Alpha  occ. eigenvalues --  -10.28866 -10.28799 -10.28730 -10.28467  -1.22433
 Alpha  occ. eigenvalues --   -1.16925  -1.16063  -1.15457  -1.15217  -1.13463
 Alpha  occ. eigenvalues --   -1.13287  -1.12787  -1.05505  -1.04786  -1.04032
 Alpha  occ. eigenvalues --   -1.03782  -1.03377  -1.02420  -1.00042  -0.96697
 Alpha  occ. eigenvalues --   -0.95362  -0.92585  -0.90663  -0.88658  -0.87553
 Alpha  occ. eigenvalues --   -0.85480  -0.84205  -0.83506  -0.81886  -0.80113
 Alpha  occ. eigenvalues --   -0.77286  -0.77182  -0.74961  -0.74842  -0.73196
 Alpha  occ. eigenvalues --   -0.72257  -0.70975  -0.70434  -0.70235  -0.69718
 Alpha  occ. eigenvalues --   -0.69118  -0.68718  -0.67398  -0.66680  -0.66344
 Alpha  occ. eigenvalues --   -0.65372  -0.64411  -0.63531  -0.62929  -0.62543
 Alpha  occ. eigenvalues --   -0.62199  -0.61560  -0.61324  -0.60814  -0.60414
 Alpha  occ. eigenvalues --   -0.59379  -0.59033  -0.58581  -0.58103  -0.57621
 Alpha  occ. eigenvalues --   -0.57448  -0.56800  -0.56501  -0.55501  -0.55362
 Alpha  occ. eigenvalues --   -0.54967  -0.54487  -0.53931  -0.53751  -0.53601
 Alpha  occ. eigenvalues --   -0.53163  -0.52924  -0.52543  -0.52036  -0.51822
 Alpha  occ. eigenvalues --   -0.51362  -0.50994  -0.50602  -0.50325  -0.49680
 Alpha  occ. eigenvalues --   -0.49226  -0.48882  -0.48663  -0.48181  -0.47732
 Alpha  occ. eigenvalues --   -0.47230  -0.47125  -0.47006  -0.46359  -0.45559
 Alpha  occ. eigenvalues --   -0.45014  -0.43689  -0.43598  -0.43468  -0.43115
 Alpha  occ. eigenvalues --   -0.42084  -0.41082  -0.40487  -0.40292  -0.39733
 Alpha  occ. eigenvalues --   -0.39076  -0.38603  -0.38360  -0.37375  -0.36054
 Alpha  occ. eigenvalues --   -0.35608  -0.35331  -0.34862  -0.34335  -0.33873
 Alpha  occ. eigenvalues --   -0.31326
 Alpha virt. eigenvalues --   -0.12423  -0.11899  -0.11301  -0.10969  -0.10504
 Alpha virt. eigenvalues --   -0.09983  -0.09517  -0.08019  -0.07140  -0.05968
 Alpha virt. eigenvalues --   -0.04465  -0.03539  -0.02487  -0.01127  -0.00659

 Mulliken charges:
               1
     1  N   -0.740454
     2  C   -0.065631
     3  C    0.604009
     4  O   -0.511856
     5  C   -0.433025
     6  C    0.617433
     7  N   -0.818194
     8  O   -0.441554
     9  H    0.201754
    10  H    0.145765
    11  H    0.173345
    12  H    0.357838
    13  H    0.357208
    14  H    0.328860
    15  H    0.348050
    16  N   -0.632841
    17  C   -0.081604
    18  C    0.635989
    19  O   -0.561646
    20  C   -0.345487
    21  C    0.149286
    22  C   -0.206312
    23  C   -0.213744
    24  C   -0.142847
    25  C   -0.146982
    26  C   -0.139206
    27  H    0.354689
    28  H    0.212288
    29  H    0.180157
    30  H    0.180439
    31  H    0.152376
    32  H    0.166306
    33  H    0.156869
    34  H    0.156559
    35  H    0.156203
    36  N   -0.617674
    37  C   -0.074138
    38  C    0.629420
    39  O   -0.512311
    40  C   -0.398032
    41  C    0.614397
    42  N   -0.724791
    43  O   -0.562375
    44  H    0.356328
    45  H    0.224762
    46  H    0.214829
    47  H    0.208219
    48  H    0.366371
    49  H    0.369680
    50  N   -0.634097
    51  C   -0.053587
    52  C    0.637938
    53  O   -0.545993
    54  C   -0.312221
    55  C   -0.311540
    56  C   -0.175885
    57  N   -0.631368
    58  C    0.758718
    59  N   -0.764840
    60  N   -0.794366
    61  O   -0.543453
    62  H    0.473010
    63  H    0.370808
    64  H    0.216066
    65  H    0.187623
    66  H    0.171325
    67  H    0.179835
    68  H    0.183538
    69  H    0.196591
    70  H    0.181513
    71  H    0.409509
    72  H    0.406566
    73  H    0.372980
    74  H    0.401501
    75  H    0.371108
 Sum of Mulliken charges =   1.00000

 Dipole moment (field-independent basis, Debye):
    X=            -22.4493    Y=             -4.2043    Z=            -39.8542  Tot=             45.9348
 Quadrupole moment (field-independent basis, Debye-Ang):
   XX=           -133.1432   YY=           -161.6930   ZZ=            139.0556
   XY=             41.5188   XZ=            192.3906   YZ=             47.9238

 Normal termination of Gaussian 16 at Fri Jun  3 06:16:53 2022.
