 Gaussian 16, Revision C.01,
 Gaussian 16:  ES64L-G16RevC.01  3-Jul-2019

 ----------------------------------------------------------------------
 # B3LYP/6-31G* empiricaldispersion=gd3 guess=read geom=check nosymm in
 tegral(ultrafinegrid)
 ----------------------------------------------------------------------

 ------------------------------------------------------
 Candidate Structure: Conf:461 Charge calc in gas phase
 ------------------------------------------------------
 Structure from the checkpoint file:  "conf-461.chk"
 Charge =  1 Multiplicity = 1

                          Input orientation:
 ---------------------------------------------------------------------
 Center     Atomic      Atomic             Coordinates (Angstroms)
 Number     Number       Type             X           Y           Z
 ---------------------------------------------------------------------
      1          7           0       -6.029302   -0.025814  -10.180617
      2          6           0       -4.858197    0.227686   -9.327351
      3          6           0       -4.473723   -1.057944   -8.572752
      4          8           0       -3.343894   -1.525870   -8.613932
      5          6           0       -5.190191    1.361670   -8.327890
      6          6           0       -5.813710    2.558010   -9.033491
      7          7           0       -6.885687    3.156883   -8.351106
      8          8           0       -5.486692    2.934085  -10.141493
      9          1           0       -3.961496    0.507603   -9.892534
     10          1           0       -5.872711    1.003477   -7.554786
     11          1           0       -4.265614    1.697337   -7.840006
     12          1           0       -7.104377    4.088014   -8.697090
     13          1           0       -6.876239    3.091401   -7.338011
     14          1           0       -6.128422    0.757301  -10.825287
     15          1           0       -5.884724   -0.853248  -10.757969
     16          7           0       -5.485350   -1.657745   -7.863516
     17          6           0       -5.215433   -2.869110   -7.096910
     18          6           0       -6.525079   -3.643997   -6.934170
     19          8           0       -7.179539   -3.633927   -5.874545
     20          6           0       -4.469928   -2.633901   -5.756634
     21          6           0       -5.113156   -1.708014   -4.747855
     22          6           0       -5.143774   -0.322694   -4.964541
     23          6           0       -5.648556   -2.203383   -3.549540
     24          6           0       -5.721318    0.539779   -4.030824
     25          6           0       -6.207049   -1.344709   -2.600778
     26          6           0       -6.256350    0.032968   -2.841936
     27          1           0       -6.377431   -1.178467   -7.763966
     28          1           0       -4.534651   -3.470320   -7.710400
     29          1           0       -4.291310   -3.614169   -5.301375
     30          1           0       -3.492464   -2.234268   -6.047157
     31          1           0       -4.683842    0.082683   -5.858451
     32          1           0       -5.630622   -3.273110   -3.362570
     33          1           0       -5.722868    1.611320   -4.214498
     34          1           0       -6.598787   -1.750129   -1.671960
     35          1           0       -6.671998    0.705560   -2.096117
     36          7           0       -6.993934   -4.364211   -7.977773
     37          6           0       -6.696388   -4.219371   -9.397168
     38          6           0       -7.341026   -2.978143  -10.056348
     39          8           0       -7.049507   -2.703543  -11.215931
     40          6           0       -7.195182   -5.465361  -10.156949
     41          6           0       -8.715376   -5.635226  -10.048005
     42          7           0       -9.323101   -6.189040  -11.116724
     43          8           0       -9.343329   -5.302646   -9.034196
     44          1           0       -7.887586   -4.829591   -7.811474
     45          1           0       -5.618944   -4.120129   -9.551174
     46          1           0       -6.719391   -6.361985   -9.741784
     47          1           0       -6.885021   -5.368754  -11.200462
     48          1           0      -10.315724   -6.378205  -11.068849
     49          1           0       -8.825592   -6.439855  -11.958639
     50          7           0       -8.251880   -2.314660   -9.307078
     51          6           0       -8.926335   -1.112550   -9.737685
     52          6           0       -8.490940    0.059808   -8.861118
     53          8           0       -8.020934   -0.068658   -7.735548
     54          6           0      -10.461643   -1.289384   -9.746948
     55          6           0      -11.192718   -1.315820   -8.391195
     56          6           0      -10.957700   -2.513102   -7.435471
     57          7           0       -9.795627   -2.395013   -6.534519
     58          6           0       -9.622649   -1.449930   -5.591999
     59          7           0      -10.551404   -0.488623   -5.404772
     60          7           0       -8.530056   -1.470433   -4.839603
     61          8           0       -8.781360    1.230645   -9.414864
     62          1           0       -8.334673    1.951998   -8.898594
     63          1           0       -8.372615   -2.576873   -8.343170
     64          1           0       -8.592692   -0.910309  -10.756199
     65          1           0      -10.882549   -0.457089  -10.322002
     66          1           0      -10.674723   -2.207691  -10.306016
     67          1           0      -11.001004   -0.370590   -7.872233
     68          1           0      -12.265844   -1.319881   -8.617619
     69          1           0      -11.859921   -2.676539   -6.829525
     70          1           0      -10.794116   -3.430919   -8.007647
     71          1           0       -9.167223   -3.190757   -6.432607
     72          1           0      -10.441834    0.165110   -4.643375
     73          1           0      -11.488506   -0.606554   -5.757828
     74          1           0       -8.301943   -0.729782   -4.189015
     75          1           0       -7.780766   -2.135020   -5.053565
 ---------------------------------------------------------------------

 SCF Done:  E(RB3LYP) =  -1917.51402715     A.U. after    2 cycles

 Alpha  occ. eigenvalues --  -19.28741 -19.24521 -19.24371 -19.23343 -19.22297
 Alpha  occ. eigenvalues --  -19.21714 -19.20425 -14.51136 -14.50172 -14.48438
 Alpha  occ. eigenvalues --  -14.47457 -14.47154 -14.46662 -14.46433 -14.44963
 Alpha  occ. eigenvalues --  -14.40244 -10.46569 -10.42666 -10.41260 -10.40967
 Alpha  occ. eigenvalues --  -10.39549 -10.39219 -10.37366 -10.35362 -10.35249
 Alpha  occ. eigenvalues --  -10.33895 -10.33656 -10.31386 -10.31343 -10.30887
 Alpha  occ. eigenvalues --  -10.29987 -10.29158 -10.29104 -10.28701 -10.28504
 Alpha  occ. eigenvalues --  -10.28374 -10.28256 -10.28163 -10.27967  -1.20433
 Alpha  occ. eigenvalues --   -1.16257  -1.15024  -1.14834  -1.14149  -1.13815
 Alpha  occ. eigenvalues --   -1.12371  -1.11512  -1.05042  -1.04608  -1.02978
 Alpha  occ. eigenvalues --   -1.02908  -1.01914  -1.01565  -1.00855  -0.97540
 Alpha  occ. eigenvalues --   -0.94883  -0.91373  -0.89614  -0.88074  -0.86335
 Alpha  occ. eigenvalues --   -0.85552  -0.83721  -0.83363  -0.80998  -0.78966
 Alpha  occ. eigenvalues --   -0.77094  -0.76922  -0.75206  -0.73725  -0.72509
 Alpha  occ. eigenvalues --   -0.71668  -0.70081  -0.69762  -0.69706  -0.69401
 Alpha  occ. eigenvalues --   -0.68597  -0.67530  -0.67081  -0.66548  -0.65076
 Alpha  occ. eigenvalues --   -0.64457  -0.63767  -0.63288  -0.62938  -0.62151
 Alpha  occ. eigenvalues --   -0.61051  -0.60628  -0.60384  -0.59860  -0.59489
 Alpha  occ. eigenvalues --   -0.58984  -0.58404  -0.58023  -0.57473  -0.56731
 Alpha  occ. eigenvalues --   -0.56508  -0.56061  -0.55635  -0.55261  -0.54949
 Alpha  occ. eigenvalues --   -0.54412  -0.54075  -0.53358  -0.52680  -0.52200
 Alpha  occ. eigenvalues --   -0.51991  -0.51892  -0.51509  -0.51121  -0.51027
 Alpha  occ. eigenvalues --   -0.50776  -0.50668  -0.50430  -0.49791  -0.48979
 Alpha  occ. eigenvalues --   -0.48692  -0.48234  -0.48215  -0.47852  -0.47211
 Alpha  occ. eigenvalues --   -0.46694  -0.46540  -0.46189  -0.45682  -0.45186
 Alpha  occ. eigenvalues --   -0.44712  -0.44449  -0.43108  -0.42594  -0.41754
 Alpha  occ. eigenvalues --   -0.41541  -0.40059  -0.39328  -0.38961  -0.38497
 Alpha  occ. eigenvalues --   -0.38313  -0.37956  -0.37276  -0.36065  -0.35704
 Alpha  occ. eigenvalues --   -0.34980  -0.34571  -0.34305  -0.33841  -0.33315
 Alpha  occ. eigenvalues --   -0.32902
 Alpha virt. eigenvalues --   -0.11637  -0.10902  -0.10167  -0.09632  -0.09533
 Alpha virt. eigenvalues --   -0.09253  -0.08977  -0.07892  -0.06829  -0.06611
 Alpha virt. eigenvalues --   -0.03266  -0.03178  -0.02939  -0.01884  -0.00585

 Mulliken charges:
               1
     1  N   -0.802862
     2  C   -0.029573
     3  C    0.575579
     4  O   -0.500977
     5  C   -0.397486
     6  C    0.575134
     7  N   -0.784104
     8  O   -0.455931
     9  H    0.181416
    10  H    0.174281
    11  H    0.197136
    12  H    0.360025
    13  H    0.345926
    14  H    0.340085
    15  H    0.345321
    16  N   -0.665783
    17  C   -0.016816
    18  C    0.572141
    19  O   -0.565133
    20  C   -0.370967
    21  C    0.162463
    22  C   -0.174175
    23  C   -0.191282
    24  C   -0.137901
    25  C   -0.134369
    26  C   -0.178168
    27  H    0.400972
    28  H    0.193215
    29  H    0.165530
    30  H    0.200740
    31  H    0.146282
    32  H    0.151630
    33  H    0.133510
    34  H    0.153607
    35  H    0.148045
    36  N   -0.609270
    37  C   -0.062865
    38  C    0.644623
    39  O   -0.536096
    40  C   -0.390176
    41  C    0.616299
    42  N   -0.728233
    43  O   -0.546420
    44  H    0.373332
    45  H    0.206704
    46  H    0.209661
    47  H    0.202244
    48  H    0.362308
    49  H    0.365473
    50  N   -0.612020
    51  C   -0.051706
    52  C    0.666560
    53  O   -0.542389
    54  C   -0.279064
    55  C   -0.309121
    56  C   -0.195056
    57  N   -0.646061
    58  C    0.831165
    59  N   -0.760311
    60  N   -0.808337
    61  O   -0.585855
    62  H    0.449059
    63  H    0.360956
    64  H    0.216786
    65  H    0.181929
    66  H    0.171550
    67  H    0.163572
    68  H    0.173011
    69  H    0.174634
    70  H    0.222398
    71  H    0.388006
    72  H    0.373175
    73  H    0.378578
    74  H    0.362043
    75  H    0.451406
 Sum of Mulliken charges =   1.00000

 Dipole moment (field-independent basis, Debye):
    X=            -45.7729    Y=             -8.3657    Z=            -33.1913  Tot=             57.1560
 Quadrupole moment (field-independent basis, Debye-Ang):
   XX=            218.5026   YY=           -146.6846   ZZ=             39.3667
   XY=             76.3879   XZ=            327.3136   YZ=            101.1813

 Normal termination of Gaussian 16 at Fri Jun  3 06:19:58 2022.
