 Gaussian 16, Revision C.01,
 Gaussian 16:  ES64L-G16RevC.01  3-Jul-2019

 ----------------------------------------------------------------------
 # B3LYP/6-31G* empiricaldispersion=gd3 guess=read geom=check nosymm in
 tegral(ultrafinegrid)
 ----------------------------------------------------------------------

 -----------------------------------------------------
 Candidate Structure: Conf:34 Charge calc in gas phase
 -----------------------------------------------------
 Structure from the checkpoint file:  "conf-34.chk"
 Charge =  1 Multiplicity = 1

                          Input orientation:
 ---------------------------------------------------------------------
 Center     Atomic      Atomic             Coordinates (Angstroms)
 Number     Number       Type             X           Y           Z
 ---------------------------------------------------------------------
      1          7           0       -8.010305   -2.811545  -10.258112
      2          6           0       -7.952215   -3.975281   -9.311454
      3          6           0       -8.152199   -3.596643   -7.835037
      4          8           0       -8.972879   -4.207361   -7.161035
      5          6           0       -6.609128   -4.692190   -9.486515
      6          6           0       -6.440470   -5.254618  -10.894655
      7          7           0       -5.561752   -6.272174  -11.002394
      8          8           0       -7.052281   -4.787052  -11.860764
      9          1           0       -8.780556   -4.637402   -9.567417
     10          1           0       -5.786381   -3.994426   -9.290976
     11          1           0       -6.529848   -5.481406   -8.734126
     12          1           0       -5.363040   -6.654001  -11.917791
     13          1           0       -5.071229   -6.638180  -10.197937
     14          1           0       -7.879084   -3.219726  -11.203076
     15          1           0       -8.892517   -2.286613  -10.149640
     16          7           0       -7.324953   -2.638084   -7.328002
     17          6           0       -7.103010   -2.551727   -5.890132
     18          6           0       -7.386207   -1.151076   -5.325859
     19          8           0       -6.570675   -0.592168   -4.575349
     20          6           0       -5.671700   -3.007569   -5.529050
     21          6           0       -5.291338   -4.336452   -6.151183
     22          6           0       -6.038316   -5.499037   -5.906353
     23          6           0       -4.170814   -4.426741   -6.986340
     24          6           0       -5.669973   -6.717828   -6.477475
     25          6           0       -3.791604   -5.646431   -7.554480
     26          6           0       -4.541144   -6.797519   -7.301294
     27          1           0       -6.659466   -2.164274   -7.947384
     28          1           0       -7.837545   -3.227334   -5.437803
     29          1           0       -4.964824   -2.238298   -5.858666
     30          1           0       -5.590635   -3.044736   -4.437430
     31          1           0       -6.917676   -5.455391   -5.269539
     32          1           0       -3.581881   -3.535606   -7.190381
     33          1           0       -6.256993   -7.607926   -6.269919
     34          1           0       -2.904967   -5.695394   -8.181026
     35          1           0       -4.238322   -7.754340   -7.719398
     36          7           0       -8.554589   -0.528343   -5.625349
     37          6           0       -9.573626   -0.844624   -6.620940
     38          6           0       -9.149983   -0.540280   -8.076541
     39          8           0       -9.755357   -1.088784   -9.004539
     40          6           0      -10.866173   -0.061062   -6.301538
     41          6           0      -10.666263    1.456656   -6.325048
     42          7           0      -11.674739    2.182462   -6.844826
     43          8           0       -9.636909    1.988684   -5.882602
     44          1           0       -8.651146    0.402933   -5.227252
     45          1           0       -9.809690   -1.911218   -6.597623
     46          1           0      -11.212070   -0.338308   -5.298279
     47          1           0      -11.633323   -0.372065   -7.016068
     48          1           0      -11.619044    3.192256   -6.805244
     49          1           0      -12.525346    1.763606   -7.192461
     50          7           0       -8.155154    0.353909   -8.226305
     51          6           0       -7.487202    0.696315   -9.482782
     52          6           0       -6.049410    0.059548   -9.416843
     53          8           0       -5.040931    0.787368   -9.323751
     54          6           0       -7.594287    2.209045   -9.837978
     55          6           0       -7.887786    3.216229   -8.699797
     56          6           0       -6.654981    3.744628   -7.945205
     57          7           0       -5.718512    2.690786   -7.563397
     58          6           0       -5.746775    1.946827   -6.458391
     59          7           0       -6.572607    2.205455   -5.424737
     60          7           0       -4.883658    0.918658   -6.357571
     61          8           0       -6.037027   -1.216065   -9.407141
     62          1           0       -7.224180   -2.121546  -10.048690
     63          1           0       -7.771308    0.735424   -7.373744
     64          1           0       -8.027868    0.140190  -10.251980
     65          1           0       -6.680892    2.492410  -10.373232
     66          1           0       -8.413779    2.301624  -10.557520
     67          1           0       -8.384816    4.090438   -9.136755
     68          1           0       -8.603924    2.787727   -7.991315
     69          1           0       -6.089388    4.426205   -8.587888
     70          1           0       -6.945582    4.321777   -7.061458
     71          1           0       -5.257854    2.220271   -8.359851
     72          1           0       -6.622916    1.496637   -4.695455
     73          1           0       -7.411300    2.752361   -5.569469
     74          1           0       -5.038775    0.227510   -5.629830
     75          1           0       -4.378845    0.640177   -7.193913
 ---------------------------------------------------------------------

 SCF Done:  E(RB3LYP) =  -1917.54513720     A.U. after    3 cycles

 Alpha  occ. eigenvalues --  -19.24944 -19.24436 -19.23854 -19.22918 -19.22503
 Alpha  occ. eigenvalues --  -19.21357 -19.21163 -14.51572 -14.48709 -14.48365
 Alpha  occ. eigenvalues --  -14.48288 -14.47958 -14.47644 -14.47606 -14.46637
 Alpha  occ. eigenvalues --  -14.46123 -10.44638 -10.42550 -10.41514 -10.41024
 Alpha  occ. eigenvalues --  -10.40215 -10.40071 -10.39222 -10.36116 -10.36116
 Alpha  occ. eigenvalues --  -10.34678 -10.33765 -10.33734 -10.32740 -10.30855
 Alpha  occ. eigenvalues --  -10.29420 -10.29420 -10.29303 -10.29229 -10.28368
 Alpha  occ. eigenvalues --  -10.28298 -10.28231 -10.28180 -10.28105  -1.16685
 Alpha  occ. eigenvalues --   -1.16082  -1.15611  -1.14914  -1.14510  -1.14096
 Alpha  occ. eigenvalues --   -1.13250  -1.07879  -1.05976  -1.05429  -1.03932
 Alpha  occ. eigenvalues --   -1.03487  -1.03122  -1.02726  -1.01236  -1.01083
 Alpha  occ. eigenvalues --   -0.94904  -0.91058  -0.90158  -0.89696  -0.88204
 Alpha  occ. eigenvalues --   -0.85366  -0.83918  -0.83576  -0.80558  -0.79056
 Alpha  occ. eigenvalues --   -0.78536  -0.76623  -0.75058  -0.72821  -0.71355
 Alpha  occ. eigenvalues --   -0.71029  -0.70469  -0.70323  -0.69842  -0.69552
 Alpha  occ. eigenvalues --   -0.69066  -0.68795  -0.67209  -0.66816  -0.66342
 Alpha  occ. eigenvalues --   -0.66272  -0.65330  -0.63872  -0.63563  -0.62653
 Alpha  occ. eigenvalues --   -0.62010  -0.61299  -0.61248  -0.60567  -0.59863
 Alpha  occ. eigenvalues --   -0.58993  -0.58663  -0.58397  -0.58147  -0.57662
 Alpha  occ. eigenvalues --   -0.56841  -0.56516  -0.56403  -0.55315  -0.55023
 Alpha  occ. eigenvalues --   -0.54945  -0.54516  -0.54143  -0.53948  -0.53100
 Alpha  occ. eigenvalues --   -0.52903  -0.52682  -0.52337  -0.52162  -0.51651
 Alpha  occ. eigenvalues --   -0.51387  -0.51063  -0.50773  -0.50573  -0.49832
 Alpha  occ. eigenvalues --   -0.49641  -0.49444  -0.49003  -0.48509  -0.47880
 Alpha  occ. eigenvalues --   -0.47758  -0.46786  -0.46584  -0.46107  -0.44781
 Alpha  occ. eigenvalues --   -0.44543  -0.44389  -0.43302  -0.43004  -0.41005
 Alpha  occ. eigenvalues --   -0.40057  -0.39719  -0.39240  -0.39015  -0.38763
 Alpha  occ. eigenvalues --   -0.37503  -0.37364  -0.37291  -0.37017  -0.36318
 Alpha  occ. eigenvalues --   -0.36272  -0.35753  -0.35232  -0.34329  -0.34277
 Alpha  occ. eigenvalues --   -0.33864
 Alpha virt. eigenvalues --   -0.11690  -0.10853  -0.10770  -0.09957  -0.09795
 Alpha virt. eigenvalues --   -0.09551  -0.09361  -0.07483  -0.07066  -0.04395
 Alpha virt. eigenvalues --   -0.03332  -0.01968  -0.01727  -0.00887  -0.00336

 Mulliken charges:
               1
     1  N   -0.813884
     2  C   -0.109816
     3  C    0.630587
     4  O   -0.514646
     5  C   -0.415303
     6  C    0.637906
     7  N   -0.741667
     8  O   -0.534117
     9  H    0.217062
    10  H    0.218771
    11  H    0.212210
    12  H    0.365992
    13  H    0.357693
    14  H    0.418524
    15  H    0.427509
    16  N   -0.651721
    17  C   -0.081113
    18  C    0.625752
    19  O   -0.555520
    20  C   -0.356101
    21  C    0.173278
    22  C   -0.178852
    23  C   -0.197388
    24  C   -0.138138
    25  C   -0.136776
    26  C   -0.159151
    27  H    0.389931
    28  H    0.220024
    29  H    0.144355
    30  H    0.194850
    31  H    0.152273
    32  H    0.143402
    33  H    0.158238
    34  H    0.152033
    35  H    0.150094
    36  N   -0.632073
    37  C   -0.060658
    38  C    0.641995
    39  O   -0.583272
    40  C   -0.395626
    41  C    0.626546
    42  N   -0.725814
    43  O   -0.560778
    44  H    0.370109
    45  H    0.221280
    46  H    0.217629
    47  H    0.197573
    48  H    0.366340
    49  H    0.367949
    50  N   -0.605503
    51  C   -0.058962
    52  C    0.602544
    53  O   -0.553250
    54  C   -0.301180
    55  C   -0.302057
    56  C   -0.178572
    57  N   -0.592176
    58  C    0.718793
    59  N   -0.767698
    60  N   -0.780915
    61  O   -0.604547
    62  H    0.430485
    63  H    0.361141
    64  H    0.169746
    65  H    0.177863
    66  H    0.166077
    67  H    0.166720
    68  H    0.165473
    69  H    0.193995
    70  H    0.174131
    71  H    0.403613
    72  H    0.385887
    73  H    0.386686
    74  H    0.398222
    75  H    0.385994
 Sum of Mulliken charges =   1.00000

 Dipole moment (field-independent basis, Debye):
    X=            -38.8081    Y=             -3.5816    Z=            -37.0986  Tot=             53.8071
 Quadrupole moment (field-independent basis, Debye-Ang):
   XX=            126.7127   YY=           -135.0003   ZZ=             71.8930
   XY=            -13.1558   XZ=            291.0704   YZ=             43.9535

 Normal termination of Gaussian 16 at Fri Jun  3 06:17:20 2022.
