 Gaussian 16, Revision C.01,
 Gaussian 16:  ES64L-G16RevC.01  3-Jul-2019

 ----------------------------------------------------------------------
 # B3LYP/6-31G* empiricaldispersion=gd3 guess=read geom=check nosymm in
 tegral(ultrafinegrid)
 ----------------------------------------------------------------------

 ------------------------------------------------------
 Candidate Structure: Conf:950 Charge calc in gas phase
 ------------------------------------------------------
 Structure from the checkpoint file:  "conf-950.chk"
 Charge =  1 Multiplicity = 1

                          Input orientation:
 ---------------------------------------------------------------------
 Center     Atomic      Atomic             Coordinates (Angstroms)
 Number     Number       Type             X           Y           Z
 ---------------------------------------------------------------------
      1          7           0       -9.165123    0.131855   -8.310744
      2          6           0       -8.102951    1.069901   -8.807228
      3          6           0       -6.882080    0.358626   -9.412646
      4          8           0       -6.504868    0.670140  -10.536571
      5          6           0       -7.663622    1.988414   -7.663812
      6          6           0       -8.805342    2.862034   -7.157886
      7          7           0       -8.421281    3.999402   -6.539699
      8          8           0       -9.988791    2.531452   -7.285068
      9          1           0       -8.544470    1.647973   -9.620145
     10          1           0       -7.287252    1.390023   -6.825677
     11          1           0       -6.822895    2.596986   -8.007342
     12          1           0       -9.127557    4.611483   -6.153449
     13          1           0       -7.447344    4.260913   -6.468367
     14          1           0       -9.945025    0.733325   -7.993296
     15          1           0       -9.425167   -0.555640   -9.040253
     16          7           0       -6.239266   -0.538940   -8.617647
     17          6           0       -4.861757   -0.934207   -8.910447
     18          6           0       -4.672388   -2.464856   -8.994808
     19          8           0       -3.829685   -3.031482   -8.313745
     20          6           0       -3.895870   -0.340045   -7.861782
     21          6           0       -4.139821    1.129236   -7.582519
     22          6           0       -4.068724    2.091737   -8.602211
     23          6           0       -4.446080    1.559423   -6.284920
     24          6           0       -4.289071    3.442491   -8.329463
     25          6           0       -4.661227    2.911815   -6.003013
     26          6           0       -4.582527    3.859956   -7.025792
     27          1           0       -6.596241   -0.724048   -7.680024
     28          1           0       -4.647533   -0.521323   -9.900895
     29          1           0       -3.987639   -0.920415   -6.938572
     30          1           0       -2.872389   -0.506536   -8.215242
     31          1           0       -3.846781    1.783768   -9.620255
     32          1           0       -4.507333    0.827335   -5.483159
     33          1           0       -4.221113    4.171185   -9.132422
     34          1           0       -4.874803    3.222366   -4.983362
     35          1           0       -4.721986    4.916545   -6.809595
     36          7           0       -5.428647   -3.174157   -9.900874
     37          6           0       -6.672357   -2.777263  -10.542698
     38          6           0       -7.885503   -2.720588   -9.588160
     39          8           0       -8.887276   -2.066906   -9.915470
     40          6           0       -6.988520   -3.679862  -11.747389
     41          6           0       -7.176800   -5.150809  -11.367695
     42          7           0       -7.706865   -5.934727  -12.337597
     43          8           0       -6.860414   -5.593937  -10.263029
     44          1           0       -5.268792   -4.176134   -9.847881
     45          1           0       -6.575636   -1.758943  -10.928154
     46          1           0       -6.168853   -3.604859  -12.472576
     47          1           0       -7.892128   -3.297568  -12.234813
     48          1           0       -7.782784   -6.928435  -12.167007
     49          1           0       -7.938672   -5.584656  -13.255564
     50          7           0       -7.760510   -3.383094   -8.423290
     51          6           0       -8.700490   -3.317280   -7.311340
     52          6           0       -7.984940   -2.491668   -6.192424
     53          8           0       -7.416600   -3.120573   -5.264170
     54          6           0       -9.149419   -4.728427   -6.906135
     55          6           0      -10.263293   -4.743213   -5.823424
     56          6           0       -9.918555   -5.581254   -4.580074
     57          7           0       -8.745142   -5.001438   -3.909781
     58          6           0       -8.736946   -4.405787   -2.717485
     59          7           0       -9.524917   -4.845506   -1.713914
     60          7           0       -7.936602   -3.347399   -2.531909
     61          8           0       -7.952473   -1.234464   -6.344937
     62          1           0       -8.802444   -0.437925   -7.488501
     63          1           0       -6.941461   -3.967323   -8.309826
     64          1           0       -9.562478   -2.747147   -7.667873
     65          1           0       -9.496805   -5.235634   -7.811375
     66          1           0       -8.266777   -5.288645   -6.572461
     67          1           0      -10.487288   -3.721175   -5.490301
     68          1           0      -11.192122   -5.138953   -6.247920
     69          1           0      -10.764633   -5.597508   -3.886438
     70          1           0       -9.693264   -6.615593   -4.862003
     71          1           0       -8.079687   -4.554036   -4.563888
     72          1           0       -9.591850   -4.334179   -0.846329
     73          1           0       -9.879981   -5.790159   -1.724546
     74          1           0       -7.626667   -3.075316   -1.610504
     75          1           0       -7.502984   -2.928087   -3.363412
 ---------------------------------------------------------------------

 SCF Done:  E(RB3LYP) =  -1917.52215849     A.U. after    3 cycles

 Alpha  occ. eigenvalues --  -19.21661 -19.21590 -19.21226 -19.20985 -19.20971
 Alpha  occ. eigenvalues --  -19.20687 -19.19269 -14.50419 -14.50354 -14.48678
 Alpha  occ. eigenvalues --  -14.47865 -14.45828 -14.45360 -14.44831 -14.44702
 Alpha  occ. eigenvalues --  -14.43464 -10.45638 -10.39202 -10.38846 -10.38525
 Alpha  occ. eigenvalues --  -10.38420 -10.38339 -10.36710 -10.34738 -10.34191
 Alpha  occ. eigenvalues --  -10.32646 -10.32626 -10.31611 -10.29811 -10.29716
 Alpha  occ. eigenvalues --  -10.29288 -10.28855 -10.27570 -10.27072 -10.26984
 Alpha  occ. eigenvalues --  -10.26858 -10.26668 -10.26525 -10.26519  -1.14639
 Alpha  occ. eigenvalues --   -1.13972  -1.13403  -1.13192  -1.12865  -1.12334
 Alpha  occ. eigenvalues --   -1.11257  -1.06803  -1.05311  -1.03385  -1.02761
 Alpha  occ. eigenvalues --   -1.02269  -1.01550  -1.00275  -0.99872  -0.99461
 Alpha  occ. eigenvalues --   -0.93328  -0.90151  -0.88764  -0.87003  -0.86191
 Alpha  occ. eigenvalues --   -0.84666  -0.82157  -0.81752  -0.78769  -0.77683
 Alpha  occ. eigenvalues --   -0.76593  -0.75542  -0.73930  -0.71230  -0.71059
 Alpha  occ. eigenvalues --   -0.69446  -0.69164  -0.68509  -0.68149  -0.67643
 Alpha  occ. eigenvalues --   -0.67282  -0.67040  -0.66689  -0.65321  -0.65103
 Alpha  occ. eigenvalues --   -0.64310  -0.63200  -0.63022  -0.62755  -0.62266
 Alpha  occ. eigenvalues --   -0.61137  -0.60688  -0.59618  -0.59276  -0.58368
 Alpha  occ. eigenvalues --   -0.58098  -0.57176  -0.56620  -0.56431  -0.55643
 Alpha  occ. eigenvalues --   -0.54819  -0.54739  -0.54076  -0.53797  -0.52953
 Alpha  occ. eigenvalues --   -0.52934  -0.52524  -0.52457  -0.52137  -0.51905
 Alpha  occ. eigenvalues --   -0.51467  -0.50798  -0.50435  -0.50021  -0.49587
 Alpha  occ. eigenvalues --   -0.49509  -0.49080  -0.48942  -0.48676  -0.48279
 Alpha  occ. eigenvalues --   -0.47972  -0.47098  -0.46671  -0.46234  -0.45952
 Alpha  occ. eigenvalues --   -0.45771  -0.45272  -0.44917  -0.44580  -0.44332
 Alpha  occ. eigenvalues --   -0.43828  -0.43009  -0.41487  -0.41277  -0.41031
 Alpha  occ. eigenvalues --   -0.38384  -0.37971  -0.37248  -0.36693  -0.36601
 Alpha  occ. eigenvalues --   -0.36067  -0.35908  -0.35587  -0.35144  -0.34786
 Alpha  occ. eigenvalues --   -0.34463  -0.33567  -0.32940  -0.32682  -0.32307
 Alpha  occ. eigenvalues --   -0.31759
 Alpha virt. eigenvalues --   -0.10517  -0.09221  -0.08632  -0.08375  -0.07985
 Alpha virt. eigenvalues --   -0.06773  -0.06495  -0.06274  -0.05901  -0.05123
 Alpha virt. eigenvalues --   -0.02093  -0.00930  -0.00650   0.00113   0.00341

 Mulliken charges:
               1
     1  N   -0.814036
     2  C   -0.109680
     3  C    0.634051
     4  O   -0.519493
     5  C   -0.414613
     6  C    0.632836
     7  N   -0.743387
     8  O   -0.537156
     9  H    0.213748
    10  H    0.215638
    11  H    0.213371
    12  H    0.361313
    13  H    0.357427
    14  H    0.411775
    15  H    0.430786
    16  N   -0.644528
    17  C   -0.081931
    18  C    0.602352
    19  O   -0.491740
    20  C   -0.364023
    21  C    0.172199
    22  C   -0.178210
    23  C   -0.197660
    24  C   -0.139047
    25  C   -0.135870
    26  C   -0.162011
    27  H    0.381637
    28  H    0.208682
    29  H    0.173308
    30  H    0.189069
    31  H    0.153610
    32  H    0.139581
    33  H    0.153183
    34  H    0.141133
    35  H    0.142571
    36  N   -0.631441
    37  C   -0.053019
    38  C    0.642278
    39  O   -0.595526
    40  C   -0.397138
    41  C    0.605837
    42  N   -0.738860
    43  O   -0.530319
    44  H    0.359214
    45  H    0.210547
    46  H    0.202975
    47  H    0.198153
    48  H    0.358574
    49  H    0.355023
    50  N   -0.581718
    51  C   -0.060214
    52  C    0.619418
    53  O   -0.580495
    54  C   -0.293250
    55  C   -0.282922
    56  C   -0.172649
    57  N   -0.602570
    58  C    0.767875
    59  N   -0.748372
    60  N   -0.771543
    61  O   -0.596002
    62  H    0.427582
    63  H    0.366496
    64  H    0.159380
    65  H    0.179202
    66  H    0.161460
    67  H    0.156931
    68  H    0.174421
    69  H    0.165410
    70  H    0.187861
    71  H    0.413218
    72  H    0.373505
    73  H    0.379299
    74  H    0.361991
    75  H    0.414500
 Sum of Mulliken charges =   1.00000

 Dipole moment (field-independent basis, Debye):
    X=            -42.7982    Y=            -12.0302    Z=            -27.0905  Tot=             52.0606
 Quadrupole moment (field-independent basis, Debye-Ang):
   XX=            151.8814   YY=           -107.3784   ZZ=             35.5984
   XY=            136.8371   XZ=            229.2912   YZ=             67.6631

 Normal termination of Gaussian 16 at Fri Jun  3 06:26:50 2022.
