 Gaussian 16, Revision C.01,
 Gaussian 16:  ES64L-G16RevC.01  3-Jul-2019

 ----------------------------------------------------------------------
 # B3LYP/6-31G* empiricaldispersion=gd3 guess=read geom=check nosymm in
 tegral(ultrafinegrid)
 ----------------------------------------------------------------------

 ------------------------------------------------------
 Candidate Structure: Conf:962 Charge calc in gas phase
 ------------------------------------------------------
 Structure from the checkpoint file:  "conf-962.chk"
 Charge =  1 Multiplicity = 1

                          Input orientation:
 ---------------------------------------------------------------------
 Center     Atomic      Atomic             Coordinates (Angstroms)
 Number     Number       Type             X           Y           Z
 ---------------------------------------------------------------------
      1          7           0       -7.749072    0.968085   -8.616163
      2          6           0       -6.409526    1.260455   -8.077100
      3          6           0       -5.592874   -0.019819   -7.890246
      4          8           0       -4.427339   -0.120409   -8.254504
      5          6           0       -6.524936    1.944791   -6.704293
      6          6           0       -7.118418    3.347902   -6.785883
      7          7           0       -6.716887    4.187817   -5.797786
      8          8           0       -7.920662    3.681046   -7.656270
      9          1           0       -5.808731    1.896284   -8.740361
     10          1           0       -7.178330    1.349567   -6.055491
     11          1           0       -5.543958    1.967312   -6.221716
     12          1           0       -7.108381    5.119110   -5.761723
     13          1           0       -6.058470    3.902071   -5.087262
     14          1           0       -8.252783    1.857943   -8.582399
     15          1           0       -7.634500    0.723228   -9.600063
     16          7           0       -6.243728   -1.045861   -7.242319
     17          6           0       -5.475818   -2.095940   -6.591401
     18          6           0       -5.913947   -3.497167   -7.031112
     19          8           0       -6.073100   -4.413800   -6.205906
     20          6           0       -5.509589   -1.969476   -5.052821
     21          6           0       -5.135169   -0.587900   -4.554746
     22          6           0       -3.908314    0.002297   -4.893729
     23          6           0       -6.014834    0.127068   -3.733179
     24          6           0       -3.572814    1.271349   -4.421676
     25          6           0       -5.682043    1.396050   -3.252073
     26          6           0       -4.457732    1.972796   -3.595647
     27          1           0       -7.195879   -0.875309   -6.936578
     28          1           0       -4.448753   -1.959244   -6.951495
     29          1           0       -6.517362   -2.222180   -4.701435
     30          1           0       -4.844854   -2.733004   -4.634462
     31          1           0       -3.211632   -0.523766   -5.540234
     32          1           0       -6.970311   -0.314869   -3.458953
     33          1           0       -2.617165    1.710120   -4.693746
     34          1           0       -6.375448    1.926127   -2.604852
     35          1           0       -4.183503    2.951103   -3.208855
     36          7           0       -6.150982   -3.736884   -8.344785
     37          6           0       -6.024773   -2.896569   -9.530446
     38          6           0       -7.272826   -2.052634   -9.857874
     39          8           0       -7.232151   -1.237896  -10.772727
     40          6           0       -5.743205   -3.796732  -10.756954
     41          6           0       -6.888089   -4.774888  -11.033418
     42          7           0       -7.260538   -4.907562  -12.321031
     43          8           0       -7.440714   -5.412173  -10.123008
     44          1           0       -6.477497   -4.674720   -8.560567
     45          1           0       -5.196306   -2.192432   -9.418410
     46          1           0       -4.834692   -4.382509  -10.574122
     47          1           0       -5.560662   -3.144472  -11.614025
     48          1           0       -7.958075   -5.600774  -12.559621
     49          1           0       -6.813700   -4.399240  -13.070513
     50          7           0       -8.398311   -2.347116   -9.149674
     51          6           0       -9.580651   -1.518592   -9.240409
     52          6           0       -9.941762   -1.004266   -7.843508
     53          8           0       -9.519077   -1.507361   -6.816151
     54          6           0      -10.752210   -2.224185   -9.975818
     55          6           0      -11.516083   -3.372245   -9.290204
     56          6           0      -10.692035   -4.557001   -8.752240
     57          7           0      -10.240688   -4.254725   -7.388560
     58          6           0       -9.156291   -4.710413   -6.754682
     59          7           0       -8.415540   -5.713712   -7.241304
     60          7           0       -8.832155   -4.163290   -5.564427
     61          8           0      -10.851184   -0.028259   -7.776237
     62          1           0      -11.016604    0.366298   -8.649903
     63          1           0       -8.269991   -2.862354   -8.292100
     64          1           0       -9.305897   -0.660025   -9.857364
     65          1           0      -11.492102   -1.463347  -10.256138
     66          1           0      -10.319412   -2.586099  -10.915196
     67          1           0      -12.143452   -2.978099   -8.477368
     68          1           0      -12.222181   -3.767814  -10.028149
     69          1           0      -11.307626   -5.463697   -8.735813
     70          1           0       -9.820206   -4.741854   -9.389687
     71          1           0      -10.761747   -3.543512   -6.893409
     72          1           0       -7.466474   -5.781620   -6.871899
     73          1           0       -8.545485   -6.030040   -8.194763
     74          1           0       -7.885960   -4.338459   -5.233050
     75          1           0       -9.173349   -3.223868   -5.392401
 ---------------------------------------------------------------------

 SCF Done:  E(RB3LYP) =  -1917.51057395     A.U. after    3 cycles

 Alpha  occ. eigenvalues --  -19.32122 -19.26711 -19.24738 -19.24069 -19.23007
 Alpha  occ. eigenvalues --  -19.20915 -19.19105 -14.51202 -14.49727 -14.49197
 Alpha  occ. eigenvalues --  -14.48497 -14.47709 -14.47523 -14.45365 -14.43311
 Alpha  occ. eigenvalues --  -14.40152 -10.46549 -10.45196 -10.42265 -10.41086
 Alpha  occ. eigenvalues --  -10.40205 -10.37501 -10.36869 -10.36045 -10.36007
 Alpha  occ. eigenvalues --  -10.35578 -10.33823 -10.32271 -10.32118 -10.32036
 Alpha  occ. eigenvalues --  -10.30837 -10.28914 -10.28448 -10.27563 -10.27446
 Alpha  occ. eigenvalues --  -10.27375 -10.27319 -10.27253 -10.27141  -1.23045
 Alpha  occ. eigenvalues --   -1.16388  -1.15859  -1.15237  -1.15139  -1.14477
 Alpha  occ. eigenvalues --   -1.12781  -1.10797  -1.05577  -1.05052  -1.03791
 Alpha  occ. eigenvalues --   -1.03224  -1.02951  -1.02020  -0.98077  -0.97350
 Alpha  occ. eigenvalues --   -0.93990  -0.92768  -0.90255  -0.88032  -0.87532
 Alpha  occ. eigenvalues --   -0.84489  -0.82792  -0.82607  -0.81751  -0.79479
 Alpha  occ. eigenvalues --   -0.77170  -0.76439  -0.75083  -0.74626  -0.73629
 Alpha  occ. eigenvalues --   -0.72280  -0.71355  -0.70199  -0.69956  -0.68902
 Alpha  occ. eigenvalues --   -0.68369  -0.68090  -0.67478  -0.66841  -0.65920
 Alpha  occ. eigenvalues --   -0.65688  -0.63879  -0.63500  -0.62619  -0.61935
 Alpha  occ. eigenvalues --   -0.61438  -0.60918  -0.60598  -0.60058  -0.59699
 Alpha  occ. eigenvalues --   -0.59290  -0.58759  -0.58407  -0.57832  -0.57127
 Alpha  occ. eigenvalues --   -0.56597  -0.56072  -0.55794  -0.55549  -0.55134
 Alpha  occ. eigenvalues --   -0.54297  -0.53934  -0.53780  -0.53634  -0.53090
 Alpha  occ. eigenvalues --   -0.53019  -0.52541  -0.52019  -0.51531  -0.51296
 Alpha  occ. eigenvalues --   -0.50870  -0.50322  -0.49825  -0.49676  -0.49204
 Alpha  occ. eigenvalues --   -0.49116  -0.48837  -0.48596  -0.47736  -0.47512
 Alpha  occ. eigenvalues --   -0.47265  -0.46808  -0.46081  -0.45934  -0.44959
 Alpha  occ. eigenvalues --   -0.44418  -0.43843  -0.43024  -0.42481  -0.42139
 Alpha  occ. eigenvalues --   -0.41844  -0.40870  -0.39932  -0.39688  -0.39234
 Alpha  occ. eigenvalues --   -0.38584  -0.38496  -0.37486  -0.35497  -0.35328
 Alpha  occ. eigenvalues --   -0.34613  -0.34413  -0.34127  -0.33301  -0.32910
 Alpha  occ. eigenvalues --   -0.32088
 Alpha virt. eigenvalues --   -0.12274  -0.11687  -0.10768  -0.10526  -0.09109
 Alpha virt. eigenvalues --   -0.08843  -0.08717  -0.07634  -0.06573  -0.04851
 Alpha virt. eigenvalues --   -0.04465  -0.03863  -0.02870  -0.01905  -0.00975

 Mulliken charges:
               1
     1  N   -0.810223
     2  C   -0.058129
     3  C    0.621054
     4  O   -0.523736
     5  C   -0.396978
     6  C    0.621162
     7  N   -0.748915
     8  O   -0.521704
     9  H    0.171160
    10  H    0.178681
    11  H    0.187644
    12  H    0.353685
    13  H    0.348287
    14  H    0.346569
    15  H    0.332923
    16  N   -0.629716
    17  C   -0.080338
    18  C    0.625190
    19  O   -0.568758
    20  C   -0.352633
    21  C    0.178314
    22  C   -0.175665
    23  C   -0.196049
    24  C   -0.134415
    25  C   -0.129204
    26  C   -0.156666
    27  H    0.359058
    28  H    0.220119
    29  H    0.127102
    30  H    0.192592
    31  H    0.151092
    32  H    0.128888
    33  H    0.156287
    34  H    0.148529
    35  H    0.148161
    36  N   -0.641576
    37  C   -0.057912
    38  C    0.640855
    39  O   -0.536636
    40  C   -0.394438
    41  C    0.618862
    42  N   -0.724814
    43  O   -0.561526
    44  H    0.369441
    45  H    0.229781
    46  H    0.212541
    47  H    0.200792
    48  H    0.362137
    49  H    0.370138
    50  N   -0.616709
    51  C   -0.097775
    52  C    0.668318
    53  O   -0.521849
    54  C   -0.269038
    55  C   -0.320524
    56  C   -0.153468
    57  N   -0.595950
    58  C    0.736572
    59  N   -0.753819
    60  N   -0.758843
    61  O   -0.539071
    62  H    0.436092
    63  H    0.365920
    64  H    0.203233
    65  H    0.157289
    66  H    0.182944
    67  H    0.162879
    68  H    0.187743
    69  H    0.194119
    70  H    0.199832
    71  H    0.363260
    72  H    0.387467
    73  H    0.396855
    74  H    0.397915
    75  H    0.385595
 Sum of Mulliken charges =   1.00000

 Dipole moment (field-independent basis, Debye):
    X=            -41.0674    Y=            -13.7920    Z=            -40.3237  Tot=             59.1840
 Quadrupole moment (field-independent basis, Debye-Ang):
   XX=            157.2996   YY=           -142.3384   ZZ=            163.8648
   XY=            129.4488   XZ=            357.0630   YZ=            156.9965

 Normal termination of Gaussian 16 at Fri Jun  3 06:26:56 2022.
