 Gaussian 16, Revision C.01,
 Gaussian 16:  ES64L-G16RevC.01  3-Jul-2019

 ----------------------------------------------------------------------
 # B3LYP/6-31G* empiricaldispersion=gd3 guess=read geom=check nosymm in
 tegral(ultrafinegrid)
 ----------------------------------------------------------------------

 -----------------------------------------------------
 Candidate Structure: Conf:95 Charge calc in gas phase
 -----------------------------------------------------
 Structure from the checkpoint file:  "conf-95.chk"
 Charge =  1 Multiplicity = 1

                          Input orientation:
 ---------------------------------------------------------------------
 Center     Atomic      Atomic             Coordinates (Angstroms)
 Number     Number       Type             X           Y           Z
 ---------------------------------------------------------------------
      1          7           0       -8.062806    0.447120   -9.730292
      2          6           0       -7.998699    1.271633   -8.477295
      3          6           0       -7.074820    0.696296   -7.391557
      4          8           0       -6.232281    1.417619   -6.871407
      5          6           0       -9.415917    1.438667   -7.918583
      6          6           0      -10.331205    2.175664   -8.891599
      7          7           0      -11.400036    2.775264   -8.328299
      8          8           0      -10.110891    2.193844  -10.107099
      9          1           0       -7.574683    2.238455   -8.752141
     10          1           0       -9.852174    0.454782   -7.709632
     11          1           0       -9.357786    1.960331   -6.959522
     12          1           0      -12.075682    3.234758   -8.924626
     13          1           0      -11.561231    2.746329   -7.330841
     14          1           0       -8.699805    0.963452  -10.366222
     15          1           0       -7.120520    0.289949  -10.121405
     16          7           0       -7.309546   -0.589545   -7.001927
     17          6           0       -6.842181   -1.055554   -5.702461
     18          6           0       -5.982431   -2.325332   -5.797489
     19          8           0       -6.203349   -3.298268   -5.059038
     20          6           0       -8.030521   -1.271106   -4.739076
     21          6           0       -8.980427   -0.091089   -4.685823
     22          6           0       -8.536687    1.189075   -4.320057
     23          6           0      -10.334336   -0.263757   -4.999331
     24          6           0       -9.425013    2.263848   -4.264678
     25          6           0      -11.230891    0.807032   -4.937383
     26          6           0      -10.778282    2.076069   -4.569143
     27          1           0       -8.030621   -1.139614   -7.479879
     28          1           0       -6.189563   -0.261803   -5.322142
     29          1           0       -8.580592   -2.164243   -5.055070
     30          1           0       -7.627998   -1.499440   -3.746397
     31          1           0       -7.489512    1.353007   -4.080697
     32          1           0      -10.695761   -1.247832   -5.288398
     33          1           0       -9.063427    3.245527   -3.972253
     34          1           0      -12.281153    0.642918   -5.163432
     35          1           0      -11.473984    2.908212   -4.494627
     36          7           0       -4.949389   -2.374612   -6.676680
     37          6           0       -4.598413   -1.490174   -7.783160
     38          6           0       -5.526289   -1.619386   -9.013217
     39          8           0       -5.560561   -0.698968   -9.837926
     40          6           0       -3.143392   -1.767157   -8.222238
     41          6           0       -2.928218   -3.203802   -8.705619
     42          7           0       -2.103309   -3.360925   -9.758627
     43          8           0       -3.476292   -4.169687   -8.153316
     44          1           0       -4.446404   -3.258888   -6.688418
     45          1           0       -4.664624   -0.445353   -7.470229
     46          1           0       -2.475306   -1.596669   -7.369222
     47          1           0       -2.882878   -1.043086   -8.999185
     48          1           0       -1.869373   -4.298831  -10.058560
     49          1           0       -1.636993   -2.585234  -10.206603
     50          7           0       -6.212572   -2.772764   -9.115556
     51          6           0       -7.251491   -3.071377  -10.102296
     52          6           0       -8.622439   -3.062934   -9.329293
     53          8           0       -9.255497   -4.123494   -9.156591
     54          6           0       -6.921301   -4.316046  -10.978632
     55          6           0       -5.902133   -5.349334  -10.440722
     56          6           0       -6.486728   -6.455526   -9.544638
     57          7           0       -7.396471   -5.946504   -8.521704
     58          6           0       -7.077869   -5.500295   -7.307351
     59          7           0       -5.844457   -5.635008   -6.780139
     60          7           0       -8.042491   -4.927867   -6.563026
     61          8           0       -8.963141   -1.922221   -8.870813
     62          1           0       -8.464444   -0.518591   -9.520393
     63          1           0       -6.065217   -3.442503   -8.374226
     64          1           0       -7.272898   -2.201914  -10.763196
     65          1           0       -7.867561   -4.808039  -11.230812
     66          1           0       -6.513127   -3.933741  -11.919438
     67          1           0       -5.441426   -5.853352  -11.298594
     68          1           0       -5.085761   -4.838976   -9.919643
     69          1           0       -7.077939   -7.150208  -10.149106
     70          1           0       -5.695104   -7.049054   -9.076019
     71          1           0       -8.267235   -5.531913   -8.892910
     72          1           0       -5.664123   -5.133276   -5.912668
     73          1           0       -5.045934   -5.774019   -7.385529
     74          1           0       -7.768178   -4.400438   -5.739622
     75          1           0       -8.918748   -4.694808   -7.020903
 ---------------------------------------------------------------------

 SCF Done:  E(RB3LYP) =  -1917.54512182     A.U. after    1 cycles

 Alpha  occ. eigenvalues --  -19.24944 -19.24433 -19.23853 -19.22918 -19.22501
 Alpha  occ. eigenvalues --  -19.21356 -19.21161 -14.51571 -14.48710 -14.48366
 Alpha  occ. eigenvalues --  -14.48288 -14.47957 -14.47647 -14.47608 -14.46634
 Alpha  occ. eigenvalues --  -14.46120 -10.44640 -10.42550 -10.41512 -10.41023
 Alpha  occ. eigenvalues --  -10.40214 -10.40070 -10.39220 -10.36115 -10.36114
 Alpha  occ. eigenvalues --  -10.34680 -10.33766 -10.33733 -10.32740 -10.30852
 Alpha  occ. eigenvalues --  -10.29422 -10.29420 -10.29305 -10.29229 -10.28370
 Alpha  occ. eigenvalues --  -10.28300 -10.28234 -10.28181 -10.28108  -1.16684
 Alpha  occ. eigenvalues --   -1.16081  -1.15611  -1.14913  -1.14509  -1.14094
 Alpha  occ. eigenvalues --   -1.13252  -1.07877  -1.05974  -1.05427  -1.03930
 Alpha  occ. eigenvalues --   -1.03488  -1.03121  -1.02728  -1.01238  -1.01080
 Alpha  occ. eigenvalues --   -0.94906  -0.91057  -0.90157  -0.89697  -0.88204
 Alpha  occ. eigenvalues --   -0.85366  -0.83919  -0.83578  -0.80559  -0.79054
 Alpha  occ. eigenvalues --   -0.78537  -0.76623  -0.75060  -0.72820  -0.71354
 Alpha  occ. eigenvalues --   -0.71028  -0.70469  -0.70324  -0.69842  -0.69554
 Alpha  occ. eigenvalues --   -0.69065  -0.68793  -0.67209  -0.66816  -0.66342
 Alpha  occ. eigenvalues --   -0.66272  -0.65328  -0.63870  -0.63562  -0.62652
 Alpha  occ. eigenvalues --   -0.62011  -0.61302  -0.61247  -0.60569  -0.59865
 Alpha  occ. eigenvalues --   -0.58992  -0.58662  -0.58397  -0.58147  -0.57662
 Alpha  occ. eigenvalues --   -0.56840  -0.56515  -0.56402  -0.55314  -0.55023
 Alpha  occ. eigenvalues --   -0.54945  -0.54516  -0.54144  -0.53948  -0.53099
 Alpha  occ. eigenvalues --   -0.52904  -0.52681  -0.52338  -0.52162  -0.51651
 Alpha  occ. eigenvalues --   -0.51387  -0.51064  -0.50772  -0.50572  -0.49832
 Alpha  occ. eigenvalues --   -0.49641  -0.49444  -0.49003  -0.48509  -0.47878
 Alpha  occ. eigenvalues --   -0.47758  -0.46785  -0.46586  -0.46106  -0.44779
 Alpha  occ. eigenvalues --   -0.44544  -0.44390  -0.43304  -0.43006  -0.41005
 Alpha  occ. eigenvalues --   -0.40058  -0.39720  -0.39239  -0.39016  -0.38763
 Alpha  occ. eigenvalues --   -0.37502  -0.37363  -0.37291  -0.37014  -0.36317
 Alpha  occ. eigenvalues --   -0.36270  -0.35752  -0.35231  -0.34329  -0.34278
 Alpha  occ. eigenvalues --   -0.33866
 Alpha virt. eigenvalues --   -0.11690  -0.10851  -0.10770  -0.09957  -0.09797
 Alpha virt. eigenvalues --   -0.09552  -0.09362  -0.07482  -0.07064  -0.04396
 Alpha virt. eigenvalues --   -0.03333  -0.01966  -0.01726  -0.00885  -0.00335

 Mulliken charges:
               1
     1  N   -0.813864
     2  C   -0.109826
     3  C    0.630489
     4  O   -0.514597
     5  C   -0.415298
     6  C    0.637876
     7  N   -0.741685
     8  O   -0.534142
     9  H    0.217049
    10  H    0.218834
    11  H    0.212170
    12  H    0.365980
    13  H    0.357690
    14  H    0.418537
    15  H    0.427493
    16  N   -0.651775
    17  C   -0.081101
    18  C    0.625741
    19  O   -0.555555
    20  C   -0.356187
    21  C    0.173379
    22  C   -0.178917
    23  C   -0.197425
    24  C   -0.138158
    25  C   -0.136767
    26  C   -0.159131
    27  H    0.389987
    28  H    0.220025
    29  H    0.144275
    30  H    0.194904
    31  H    0.152266
    32  H    0.143453
    33  H    0.158246
    34  H    0.152058
    35  H    0.150122
    36  N   -0.632060
    37  C   -0.060576
    38  C    0.642026
    39  O   -0.583258
    40  C   -0.395677
    41  C    0.626572
    42  N   -0.725827
    43  O   -0.560807
    44  H    0.370087
    45  H    0.221307
    46  H    0.217624
    47  H    0.197592
    48  H    0.366335
    49  H    0.367950
    50  N   -0.605629
    51  C   -0.058894
    52  C    0.602503
    53  O   -0.553176
    54  C   -0.301236
    55  C   -0.301993
    56  C   -0.178529
    57  N   -0.592221
    58  C    0.718732
    59  N   -0.767628
    60  N   -0.780940
    61  O   -0.604539
    62  H    0.430467
    63  H    0.361210
    64  H    0.169719
    65  H    0.177865
    66  H    0.166092
    67  H    0.166730
    68  H    0.165434
    69  H    0.193997
    70  H    0.174144
    71  H    0.403624
    72  H    0.385819
    73  H    0.386742
    74  H    0.398302
    75  H    0.385972
 Sum of Mulliken charges =   1.00000

 Dipole moment (field-independent basis, Debye):
    X=            -30.4639    Y=             -9.2254    Z=            -39.7088  Tot=             50.8915
 Quadrupole moment (field-independent basis, Debye-Ang):
   XX=             33.5731   YY=           -154.8504   ZZ=            121.3257
   XY=             13.8105   XZ=            226.5625   YZ=             96.1203

 Normal termination of Gaussian 16 at Fri Jun  3 06:16:45 2022.
