 Gaussian 16, Revision C.01,
 Gaussian 16:  ES64L-G16RevC.01  3-Jul-2019

 ----------------------------------------------------------------------
 # B3LYP/6-31G* empiricaldispersion=gd3 guess=read geom=check nosymm in
 tegral(ultrafinegrid)
 ----------------------------------------------------------------------

 ------------------------------------------------------
 Candidate Structure: Conf:883 Charge calc in gas phase
 ------------------------------------------------------
 Structure from the checkpoint file:  "conf-883.chk"
 Charge =  1 Multiplicity = 1

                          Input orientation:
 ---------------------------------------------------------------------
 Center     Atomic      Atomic             Coordinates (Angstroms)
 Number     Number       Type             X           Y           Z
 ---------------------------------------------------------------------
      1          7           0       -8.108488   -5.455073   -7.583460
      2          6           0       -7.840017   -4.218455   -8.335120
      3          6           0       -8.012135   -2.942898   -7.491991
      4          8           0       -8.989984   -2.209460   -7.561410
      5          6           0       -8.750125   -4.183727   -9.578625
      6          6           0       -8.101616   -4.946228  -10.723358
      7          7           0       -7.922022   -6.260115  -10.500108
      8          8           0       -7.738817   -4.402166  -11.781084
      9          1           0       -6.794282   -4.255778   -8.662578
     10          1           0       -9.715105   -4.637485   -9.327626
     11          1           0       -8.959256   -3.165215   -9.891987
     12          1           0       -7.423878   -6.809995  -11.187820
     13          1           0       -8.077733   -6.628983   -9.565668
     14          1           0       -7.435451   -5.601921   -6.832761
     15          1           0       -9.017700   -5.395510   -7.124261
     16          7           0       -6.961222   -2.685062   -6.638229
     17          6           0       -7.129373   -1.796097   -5.484230
     18          6           0       -6.112191   -0.663673   -5.653119
     19          8           0       -4.905361   -0.883198   -5.441022
     20          6           0       -6.917441   -2.556785   -4.156975
     21          6           0       -7.661106   -3.876024   -4.152516
     22          6           0       -9.058811   -3.916247   -4.253916
     23          6           0       -6.956144   -5.086450   -4.116165
     24          6           0       -9.734427   -5.135559   -4.320200
     25          6           0       -7.629292   -6.310960   -4.174704
     26          6           0       -9.021117   -6.337868   -4.282214
     27          1           0       -6.269865   -3.416295   -6.521844
     28          1           0       -8.153181   -1.428016   -5.546414
     29          1           0       -5.843738   -2.719180   -4.018431
     30          1           0       -7.247559   -1.909558   -3.334931
     31          1           0       -9.625251   -2.988642   -4.287165
     32          1           0       -5.872212   -5.072313   -4.021790
     33          1           0      -10.818489   -5.147722   -4.391333
     34          1           0       -7.067111   -7.239530   -4.129741
     35          1           0       -9.547563   -7.286838   -4.325133
     36          7           0       -6.514175    0.532498   -6.127619
     37          6           0       -7.815039    1.069300   -6.512839
     38          6           0       -8.083087    1.049627   -8.037344
     39          8           0       -8.919528    1.815109   -8.504136
     40          6           0       -7.920818    2.532619   -6.038539
     41          6           0       -6.909328    3.424864   -6.763853
     42          7           0       -7.256253    4.715637   -6.914983
     43          8           0       -5.815936    2.987326   -7.156509
     44          1           0       -5.773381    1.203828   -6.318057
     45          1           0       -8.614394    0.486259   -6.049601
     46          1           0       -7.721817    2.584317   -4.961641
     47          1           0       -8.938268    2.884776   -6.218250
     48          1           0       -6.611676    5.342474   -7.378905
     49          1           0       -8.181483    5.055975   -6.696621
     50          7           0       -7.350191    0.195641   -8.794108
     51          6           0       -7.724899   -0.014675  -10.190143
     52          6           0       -7.252349   -1.396011  -10.627686
     53          8           0       -6.383760   -2.033605  -10.022108
     54          6           0       -7.270334    1.133532  -11.126715
     55          6           0       -5.775105    1.303690  -11.450237
     56          6           0       -4.810705    1.468590  -10.263474
     57          7           0       -4.463237    0.143104   -9.734501
     58          6           0       -4.111863   -0.163214   -8.487442
     59          7           0       -3.703895    0.765415   -7.608932
     60          7           0       -4.107728   -1.463918   -8.122767
     61          8           0       -7.891018   -1.828459  -11.683319
     62          1           0       -7.734562   -2.838826  -11.820051
     63          1           0       -6.832085   -0.546903   -8.344265
     64          1           0       -8.819070   -0.028254  -10.245126
     65          1           0       -7.803885    1.000687  -12.074202
     66          1           0       -7.657951    2.050547  -10.672787
     67          1           0       -5.419683    0.476691  -12.082574
     68          1           0       -5.685020    2.199761  -12.073975
     69          1           0       -3.894669    1.973223  -10.591287
     70          1           0       -5.276335    2.066836   -9.472016
     71          1           0       -4.765857   -0.649255  -10.288083
     72          1           0       -3.689463    0.485033   -6.630638
     73          1           0       -3.878860    1.745639   -7.792470
     74          1           0       -4.093712   -1.647030   -7.122144
     75          1           0       -4.706753   -2.073623   -8.670250
 ---------------------------------------------------------------------

 SCF Done:  E(RB3LYP) =  -1917.53374541     A.U. after    2 cycles

 Alpha  occ. eigenvalues --  -19.27985 -19.25257 -19.23955 -19.23918 -19.23045
 Alpha  occ. eigenvalues --  -19.22483 -19.21893 -14.49300 -14.48913 -14.48079
 Alpha  occ. eigenvalues --  -14.48035 -14.47725 -14.47454 -14.46418 -14.44949
 Alpha  occ. eigenvalues --  -14.43202 -10.45277 -10.43090 -10.41420 -10.41223
 Alpha  occ. eigenvalues --  -10.39693 -10.39337 -10.39231 -10.35765 -10.34826
 Alpha  occ. eigenvalues --  -10.34121 -10.33888 -10.33703 -10.31421 -10.30077
 Alpha  occ. eigenvalues --  -10.29739 -10.29553 -10.29102 -10.29065 -10.28563
 Alpha  occ. eigenvalues --  -10.28427 -10.28418 -10.28372 -10.28211  -1.20493
 Alpha  occ. eigenvalues --   -1.16000  -1.15262  -1.14759  -1.14166  -1.14019
 Alpha  occ. eigenvalues --   -1.13563  -1.11521  -1.04940  -1.04084  -1.03823
 Alpha  occ. eigenvalues --   -1.02683  -1.02291  -1.01944  -1.00906  -0.99303
 Alpha  occ. eigenvalues --   -0.95141  -0.90792  -0.89871  -0.89044  -0.86351
 Alpha  occ. eigenvalues --   -0.85980  -0.84095  -0.83787  -0.80344  -0.78968
 Alpha  occ. eigenvalues --   -0.77627  -0.76096  -0.75736  -0.73111  -0.71871
 Alpha  occ. eigenvalues --   -0.70951  -0.70537  -0.70420  -0.69888  -0.69123
 Alpha  occ. eigenvalues --   -0.68213  -0.67976  -0.67551  -0.66611  -0.65445
 Alpha  occ. eigenvalues --   -0.64861  -0.63920  -0.63377  -0.62475  -0.61935
 Alpha  occ. eigenvalues --   -0.61464  -0.60818  -0.60422  -0.60115  -0.59785
 Alpha  occ. eigenvalues --   -0.59298  -0.59142  -0.58051  -0.57805  -0.57515
 Alpha  occ. eigenvalues --   -0.56569  -0.56214  -0.55718  -0.55441  -0.55248
 Alpha  occ. eigenvalues --   -0.54655  -0.54410  -0.54091  -0.53510  -0.52960
 Alpha  occ. eigenvalues --   -0.52538  -0.52280  -0.52072  -0.51767  -0.51403
 Alpha  occ. eigenvalues --   -0.51085  -0.50960  -0.50695  -0.49974  -0.49739
 Alpha  occ. eigenvalues --   -0.49248  -0.48462  -0.48171  -0.47844  -0.47235
 Alpha  occ. eigenvalues --   -0.46995  -0.46493  -0.45801  -0.45274  -0.45131
 Alpha  occ. eigenvalues --   -0.44977  -0.44314  -0.43428  -0.43219  -0.42093
 Alpha  occ. eigenvalues --   -0.40959  -0.39730  -0.39401  -0.38984  -0.38879
 Alpha  occ. eigenvalues --   -0.38584  -0.37960  -0.37939  -0.36875  -0.36524
 Alpha  occ. eigenvalues --   -0.36196  -0.35835  -0.34648  -0.34594  -0.34222
 Alpha  occ. eigenvalues --   -0.33946
 Alpha virt. eigenvalues --   -0.11338  -0.10804  -0.10333  -0.10210  -0.09804
 Alpha virt. eigenvalues --   -0.09400  -0.08987  -0.08013  -0.07367  -0.04585
 Alpha virt. eigenvalues --   -0.02983  -0.02245  -0.01500  -0.01139  -0.00185

 Mulliken charges:
               1
     1  N   -0.736122
     2  C   -0.096990
     3  C    0.628100
     4  O   -0.521821
     5  C   -0.362271
     6  C    0.607163
     7  N   -0.716969
     8  O   -0.559139
     9  H    0.170665
    10  H    0.188450
    11  H    0.192189
    12  H    0.358222
    13  H    0.379747
    14  H    0.321049
    15  H    0.328423
    16  N   -0.622435
    17  C   -0.054896
    18  C    0.618097
    19  O   -0.573304
    20  C   -0.386907
    21  C    0.172097
    22  C   -0.175895
    23  C   -0.221306
    24  C   -0.146131
    25  C   -0.136112
    26  C   -0.133473
    27  H    0.330732
    28  H    0.193420
    29  H    0.183392
    30  H    0.180225
    31  H    0.143287
    32  H    0.141972
    33  H    0.157266
    34  H    0.156284
    35  H    0.157974
    36  N   -0.618001
    37  C   -0.090605
    38  C    0.657134
    39  O   -0.524960
    40  C   -0.373108
    41  C    0.633684
    42  N   -0.726044
    43  O   -0.567136
    44  H    0.375179
    45  H    0.208147
    46  H    0.199464
    47  H    0.203515
    48  H    0.363045
    49  H    0.367489
    50  N   -0.638831
    51  C   -0.025507
    52  C    0.594883
    53  O   -0.555024
    54  C   -0.279093
    55  C   -0.328607
    56  C   -0.150810
    57  N   -0.591436
    58  C    0.746046
    59  N   -0.760211
    60  N   -0.770867
    61  O   -0.581091
    62  H    0.475506
    63  H    0.359403
    64  H    0.215069
    65  H    0.183120
    66  H    0.191832
    67  H    0.162530
    68  H    0.182363
    69  H    0.185027
    70  H    0.198535
    71  H    0.368604
    72  H    0.379869
    73  H    0.394419
    74  H    0.384237
    75  H    0.387248
 Sum of Mulliken charges =   1.00000

 Dipole moment (field-independent basis, Debye):
    X=            -31.4494    Y=             -3.8351    Z=            -35.1043  Tot=             47.2873
 Quadrupole moment (field-independent basis, Debye-Ang):
   XX=             -7.8536   YY=           -118.0843   ZZ=             52.3952
   XY=             35.3558   XZ=            212.6273   YZ=             22.9620

 Normal termination of Gaussian 16 at Fri Jun  3 06:27:01 2022.
