 Gaussian 16, Revision C.01,
 Gaussian 16:  ES64L-G16RevC.01  3-Jul-2019

 ----------------------------------------------------------------------
 # B3LYP/6-31G* empiricaldispersion=gd3 guess=read geom=check nosymm in
 tegral(ultrafinegrid)
 ----------------------------------------------------------------------

 ------------------------------------------------------
 Candidate Structure: Conf:156 Charge calc in gas phase
 ------------------------------------------------------
 Structure from the checkpoint file:  "conf-156.chk"
 Charge =  1 Multiplicity = 1

                          Input orientation:
 ---------------------------------------------------------------------
 Center     Atomic      Atomic             Coordinates (Angstroms)
 Number     Number       Type             X           Y           Z
 ---------------------------------------------------------------------
      1          7           0       -9.502295   -1.062212  -10.169277
      2          6           0       -8.908535   -2.375172   -9.909510
      3          6           0       -8.992236   -2.759690   -8.419884
      4          8           0      -10.068013   -2.816763   -7.841434
      5          6           0       -7.489440   -2.457673  -10.511628
      6          6           0       -7.516580   -1.983365  -11.958324
      7          7           0       -6.652027   -0.896234  -12.231803
      8          8           0       -8.248295   -2.448787  -12.800092
      9          1           0       -9.517278   -3.117931  -10.434803
     10          1           0       -6.777199   -1.858766   -9.934606
     11          1           0       -7.154403   -3.502569  -10.506493
     12          1           0       -6.585431   -0.703559  -13.229034
     13          1           0       -5.743107   -0.934334  -11.773586
     14          1           0      -10.514154   -1.136709  -10.094693
     15          1           0       -9.226622   -0.384421   -9.460806
     16          7           0       -7.797960   -2.953947   -7.744691
     17          6           0       -7.779780   -3.687996   -6.482211
     18          6           0       -6.919134   -2.903071   -5.488370
     19          8           0       -5.840494   -3.351589   -5.055426
     20          6           0       -7.286053   -5.145325   -6.661374
     21          6           0       -7.861079   -5.767510   -7.914477
     22          6           0       -9.229277   -6.049601   -8.018307
     23          6           0       -7.045638   -5.979538   -9.033748
     24          6           0       -9.770426   -6.516162   -9.216409
     25          6           0       -7.582070   -6.449884  -10.235045
     26          6           0       -8.949960   -6.711555  -10.330510
     27          1           0       -6.970113   -3.073500   -8.311004
     28          1           0       -8.817469   -3.694802   -6.135159
     29          1           0       -6.192009   -5.151950   -6.704342
     30          1           0       -7.556451   -5.711497   -5.762845
     31          1           0       -9.880705   -5.879684   -7.165018
     32          1           0       -5.976709   -5.783653   -8.962180
     33          1           0      -10.834675   -6.722691   -9.281571
     34          1           0       -6.933993   -6.614615  -11.091450
     35          1           0       -9.372775   -7.071458  -11.263721
     36          7           0       -7.325157   -1.664173   -5.129208
     37          6           0       -8.484535   -0.887731   -5.553614
     38          6           0       -8.275887    0.025545   -6.784092
     39          8           0       -9.253972    0.415920   -7.407910
     40          6           0       -8.941194    0.011459   -4.381693
     41          6           0       -7.856811    0.995254   -3.929225
     42          7           0       -8.290329    2.193668   -3.495126
     43          8           0       -6.648892    0.706039   -3.947409
     44          1           0       -6.723006   -1.172681   -4.474062
     45          1           0       -9.308786   -1.546528   -5.835205
     46          1           0       -9.196470   -0.622591   -3.523507
     47          1           0       -9.849003    0.538854   -4.687851
     48          1           0       -7.620368    2.840897   -3.099332
     49          1           0       -9.270418    2.434557   -3.452707
     50          7           0       -7.003470    0.434028   -7.052814
     51          6           0       -6.717669    1.458134   -8.050238
     52          6           0       -6.353481    0.783421   -9.383824
     53          8           0       -5.354732    0.078171   -9.563378
     54          6           0       -5.686244    2.533710   -7.583183
     55          6           0       -4.726991    2.214134   -6.418135
     56          6           0       -3.513630    1.328225   -6.741651
     57          7           0       -3.836532   -0.008070   -7.248775
     58          6           0       -4.076586   -1.089921   -6.505988
     59          7           0       -4.139268   -1.046206   -5.163668
     60          7           0       -4.259081   -2.269373   -7.127571
     61          8           0       -7.265344    1.008230  -10.300400
     62          1           0       -7.118053    0.439488  -11.122074
     63          1           0       -6.266585    0.090594   -6.460212
     64          1           0       -7.671144    1.954736   -8.236125
     65          1           0       -5.106712    2.865319   -8.453764
     66          1           0       -6.274434    3.401111   -7.268732
     67          1           0       -4.315535    3.170832   -6.073244
     68          1           0       -5.289597    1.816899   -5.565229
     69          1           0       -2.904958    1.804700   -7.516456
     70          1           0       -2.872516    1.219122   -5.860894
     71          1           0       -4.186402   -0.048083   -8.216158
     72          1           0       -4.461926   -1.897669   -4.699132
     73          1           0       -4.377135   -0.177425   -4.700593
     74          1           0       -4.568931   -3.072020   -6.584630
     75          1           0       -3.915159   -2.399658   -8.067566
 ---------------------------------------------------------------------

 SCF Done:  E(RB3LYP) =  -1917.50298326     A.U. after    3 cycles

 Alpha  occ. eigenvalues --  -19.30096 -19.26907 -19.25313 -19.24652 -19.23180
 Alpha  occ. eigenvalues --  -19.21421 -19.21016 -14.50764 -14.50636 -14.50391
 Alpha  occ. eigenvalues --  -14.48977 -14.48401 -14.48137 -14.46266 -14.45723
 Alpha  occ. eigenvalues --  -14.39019 -10.47285 -10.44422 -10.42870 -10.41490
 Alpha  occ. eigenvalues --  -10.40537 -10.38732 -10.37922 -10.35964 -10.35864
 Alpha  occ. eigenvalues --  -10.35707 -10.34024 -10.32754 -10.31751 -10.31492
 Alpha  occ. eigenvalues --  -10.31377 -10.28991 -10.28747 -10.27965 -10.27192
 Alpha  occ. eigenvalues --  -10.26875 -10.26648 -10.26573 -10.26491  -1.22172
 Alpha  occ. eigenvalues --   -1.16899  -1.16367  -1.15624  -1.15337  -1.13322
 Alpha  occ. eigenvalues --   -1.13174  -1.13020  -1.05710  -1.05124  -1.04215
 Alpha  occ. eigenvalues --   -1.03894  -1.03711  -1.02601  -1.00038  -0.96804
 Alpha  occ. eigenvalues --   -0.93541  -0.92355  -0.90649  -0.88103  -0.87509
 Alpha  occ. eigenvalues --   -0.85117  -0.82699  -0.82222  -0.82157  -0.80159
 Alpha  occ. eigenvalues --   -0.77812  -0.76439  -0.75074  -0.74274  -0.73395
 Alpha  occ. eigenvalues --   -0.72707  -0.71323  -0.70547  -0.69950  -0.69213
 Alpha  occ. eigenvalues --   -0.68777  -0.67982  -0.66682  -0.66414  -0.66231
 Alpha  occ. eigenvalues --   -0.65318  -0.64769  -0.64390  -0.63275  -0.62707
 Alpha  occ. eigenvalues --   -0.62375  -0.61855  -0.60886  -0.60346  -0.59213
 Alpha  occ. eigenvalues --   -0.58900  -0.58691  -0.58372  -0.58114  -0.57813
 Alpha  occ. eigenvalues --   -0.57274  -0.56635  -0.56344  -0.55206  -0.55067
 Alpha  occ. eigenvalues --   -0.54568  -0.54024  -0.53627  -0.53408  -0.53355
 Alpha  occ. eigenvalues --   -0.52957  -0.52785  -0.52309  -0.51871  -0.51515
 Alpha  occ. eigenvalues --   -0.51058  -0.50663  -0.50057  -0.49642  -0.49521
 Alpha  occ. eigenvalues --   -0.49073  -0.49040  -0.48495  -0.48270  -0.47598
 Alpha  occ. eigenvalues --   -0.47110  -0.46867  -0.46464  -0.45620  -0.44962
 Alpha  occ. eigenvalues --   -0.43682  -0.43554  -0.43309  -0.42698  -0.41960
 Alpha  occ. eigenvalues --   -0.41742  -0.41196  -0.40408  -0.40168  -0.39904
 Alpha  occ. eigenvalues --   -0.39020  -0.38887  -0.38678  -0.37171  -0.36045
 Alpha  occ. eigenvalues --   -0.35739  -0.35213  -0.34284  -0.32805  -0.32319
 Alpha  occ. eigenvalues --   -0.31486
 Alpha virt. eigenvalues --   -0.12433  -0.12150  -0.11448  -0.11074  -0.09293
 Alpha virt. eigenvalues --   -0.08482  -0.08335  -0.07947  -0.07340  -0.06425
 Alpha virt. eigenvalues --   -0.04408  -0.03617  -0.02363  -0.01431  -0.00640

 Mulliken charges:
               1
     1  N   -0.735698
     2  C   -0.063539
     3  C    0.620537
     4  O   -0.517183
     5  C   -0.435622
     6  C    0.615172
     7  N   -0.816687
     8  O   -0.438868
     9  H    0.207579
    10  H    0.141270
    11  H    0.189584
    12  H    0.358130
    13  H    0.354436
    14  H    0.330250
    15  H    0.338775
    16  N   -0.624883
    17  C   -0.075268
    18  C    0.635126
    19  O   -0.570443
    20  C   -0.370956
    21  C    0.169157
    22  C   -0.168986
    23  C   -0.206331
    24  C   -0.128948
    25  C   -0.129131
    26  C   -0.128717
    27  H    0.332548
    28  H    0.211144
    29  H    0.150755
    30  H    0.182756
    31  H    0.143273
    32  H    0.110393
    33  H    0.154931
    34  H    0.145840
    35  H    0.155276
    36  N   -0.627398
    37  C   -0.072185
    38  C    0.636938
    39  O   -0.514828
    40  C   -0.393448
    41  C    0.619912
    42  N   -0.724519
    43  O   -0.562007
    44  H    0.366805
    45  H    0.229374
    46  H    0.215450
    47  H    0.204279
    48  H    0.365632
    49  H    0.370125
    50  N   -0.626725
    51  C   -0.045952
    52  C    0.613423
    53  O   -0.542380
    54  C   -0.306118
    55  C   -0.322362
    56  C   -0.176869
    57  N   -0.612274
    58  C    0.733506
    59  N   -0.753042
    60  N   -0.781968
    61  O   -0.543515
    62  H    0.476614
    63  H    0.353383
    64  H    0.224050
    65  H    0.171320
    66  H    0.183423
    67  H    0.179871
    68  H    0.179668
    69  H    0.194103
    70  H    0.189511
    71  H    0.402726
    72  H    0.394773
    73  H    0.385998
    74  H    0.404946
    75  H    0.374088
 Sum of Mulliken charges =   1.00000

 Dipole moment (field-independent basis, Debye):
    X=            -26.6896    Y=             -0.2189    Z=            -30.3589  Tot=             40.4233
 Quadrupole moment (field-independent basis, Debye-Ang):
   XX=            -60.2948   YY=           -183.6209   ZZ=             -1.3149
   XY=             -0.0068   XZ=            136.8717   YZ=             21.4483

 Normal termination of Gaussian 16 at Fri Jun  3 06:16:55 2022.
