 Gaussian 16, Revision C.01,
 Gaussian 16:  ES64L-G16RevC.01  3-Jul-2019

 ----------------------------------------------------------------------
 # B3LYP/6-31G* empiricaldispersion=gd3 guess=read geom=check nosymm in
 tegral(ultrafinegrid)
 ----------------------------------------------------------------------

 -----------------------------------------------------
 Candidate Structure: Conf:60 Charge calc in gas phase
 -----------------------------------------------------
 Structure from the checkpoint file:  "conf-60.chk"
 Charge =  1 Multiplicity = 1

                          Input orientation:
 ---------------------------------------------------------------------
 Center     Atomic      Atomic             Coordinates (Angstroms)
 Number     Number       Type             X           Y           Z
 ---------------------------------------------------------------------
      1          7           0       -7.844784   -4.500308   -8.989785
      2          6           0       -8.915503   -4.392502   -8.009670
      3          6           0       -8.624842   -3.560535   -6.748631
      4          8           0       -9.312045   -3.612076   -5.732632
      5          6           0       -9.434480   -5.780935   -7.621759
      6          6           0      -10.321897   -6.332583   -8.740455
      7          7           0      -10.270556   -7.681308   -8.921433
      8          8           0      -11.064007   -5.607705   -9.388463
      9          1           0       -9.748854   -3.880617   -8.507592
     10          1           0       -8.594199   -6.449943   -7.395091
     11          1           0      -10.047006   -5.700805   -6.717254
     12          1           0      -10.856903   -8.091185   -9.635114
     13          1           0       -9.624392   -8.276156   -8.426606
     14          1           0       -7.728694   -3.657809   -9.542300
     15          1           0       -6.957352   -4.790399   -8.587460
     16          7           0       -7.587720   -2.661852   -6.852291
     17          6           0       -7.057490   -2.003120   -5.677344
     18          6           0       -7.507215   -0.547527   -5.459951
     19          8           0       -6.891728    0.157391   -4.642636
     20          6           0       -5.506077   -2.049785   -5.661908
     21          6           0       -4.905322   -3.360259   -6.128290
     22          6           0       -5.485772   -4.600356   -5.830967
     23          6           0       -3.739448   -3.338400   -6.913263
     24          6           0       -4.927859   -5.782802   -6.322291
     25          6           0       -3.178031   -4.522409   -7.404074
     26          6           0       -3.779523   -5.749035   -7.117319
     27          1           0       -6.984563   -2.761254   -7.658071
     28          1           0       -7.458852   -2.541553   -4.808784
     29          1           0       -5.123344   -1.250940   -6.307542
     30          1           0       -5.178100   -1.804941   -4.646409
     31          1           0       -6.386468   -4.649413   -5.225279
     32          1           0       -3.254286   -2.385845   -7.124255
     33          1           0       -5.394738   -6.734126   -6.083230
     34          1           0       -2.272873   -4.483571   -8.003615
     35          1           0       -3.352771   -6.670487   -7.501437
     36          7           0       -8.557274   -0.002129   -6.130730
     37          6           0       -9.386477   -0.492621   -7.231399
     38          6           0       -8.607872   -0.738379   -8.541107
     39          8           0       -9.050809   -1.476379   -9.407703
     40          6           0      -10.540207    0.496943   -7.507882
     41          6           0      -10.066153    1.869186   -7.976700
     42          7           0      -10.738647    2.420009   -9.003912
     43          8           0       -9.110057    2.446077   -7.435171
     44          1           0       -8.697501    0.975208   -5.899815
     45          1           0       -9.844583   -1.442781   -6.958049
     46          1           0      -11.116773    0.637061   -6.585017
     47          1           0      -11.202529    0.030042   -8.241973
     48          1           0      -10.511756    3.364960   -9.286970
     49          1           0      -11.532797    1.969958   -9.436887
     50          7           0       -7.437470   -0.037876   -8.663214
     51          6           0       -6.537038   -0.176486   -9.798407
     52          6           0       -5.290850   -0.893015   -9.258460
     53          8           0       -4.278414   -0.358543   -8.831034
     54          6           0       -6.250760    1.144327  -10.577588
     55          6           0       -6.640066    2.481600   -9.908875
     56          6           0       -5.570061    3.119656   -9.008489
     57          7           0       -5.019656    2.215832   -7.995636
     58          6           0       -5.412350    2.089796   -6.725170
     59          7           0       -6.502609    2.715200   -6.252555
     60          7           0       -4.676557    1.347175   -5.879182
     61          8           0       -5.477978   -2.217970   -9.228417
     62          1           0       -4.724505   -2.655797   -8.766768
     63          1           0       -7.192766    0.593182   -7.915450
     64          1           0       -7.036044   -0.881952  -10.466596
     65          1           0       -5.193321    1.161382  -10.867588
     66          1           0       -6.817131    1.074515  -11.510465
     67          1           0       -6.842279    3.209412  -10.703393
     68          1           0       -7.578046    2.369895   -9.357265
     69          1           0       -4.720158    3.445791   -9.616714
     70          1           0       -5.962508    4.008713   -8.506320
     71          1           0       -4.417499    1.469098   -8.344628
     72          1           0       -6.751317    2.515529   -5.289654
     73          1           0       -7.292381    2.917601   -6.861779
     74          1           0       -5.168981    0.866175   -5.124050
     75          1           0       -3.804930    0.950943   -6.202605
 ---------------------------------------------------------------------

 SCF Done:  E(RB3LYP) =  -1917.49891359     A.U. after    2 cycles

 Alpha  occ. eigenvalues --  -19.32976 -19.28506 -19.25658 -19.24039 -19.23665
 Alpha  occ. eigenvalues --  -19.20541 -19.16417 -14.50692 -14.49986 -14.49807
 Alpha  occ. eigenvalues --  -14.49357 -14.49006 -14.48340 -14.45289 -14.41279
 Alpha  occ. eigenvalues --  -14.39250 -10.46812 -10.46078 -10.43174 -10.41435
 Alpha  occ. eigenvalues --  -10.41075 -10.36982 -10.36648 -10.36137 -10.35697
 Alpha  occ. eigenvalues --  -10.34592 -10.34424 -10.32931 -10.31625 -10.31258
 Alpha  occ. eigenvalues --  -10.30688 -10.30514 -10.29578 -10.29376 -10.29276
 Alpha  occ. eigenvalues --  -10.29016 -10.28950 -10.28716 -10.25764  -1.24254
 Alpha  occ. eigenvalues --   -1.17204  -1.16155  -1.15768  -1.15508  -1.15125
 Alpha  occ. eigenvalues --   -1.12521  -1.08371  -1.06145  -1.05038  -1.04262
 Alpha  occ. eigenvalues --   -1.04085  -1.03186  -1.02365  -0.96503  -0.95809
 Alpha  occ. eigenvalues --   -0.95686  -0.92403  -0.90828  -0.89116  -0.88020
 Alpha  occ. eigenvalues --   -0.84654  -0.84120  -0.82596  -0.82366  -0.80603
 Alpha  occ. eigenvalues --   -0.78084  -0.77271  -0.74903  -0.74136  -0.73649
 Alpha  occ. eigenvalues --   -0.72454  -0.71645  -0.71150  -0.70844  -0.70062
 Alpha  occ. eigenvalues --   -0.68375  -0.68184  -0.67807  -0.67117  -0.65521
 Alpha  occ. eigenvalues --   -0.64649  -0.64138  -0.63971  -0.63492  -0.62755
 Alpha  occ. eigenvalues --   -0.62441  -0.61444  -0.60786  -0.60695  -0.60102
 Alpha  occ. eigenvalues --   -0.59523  -0.58495  -0.58290  -0.58036  -0.57589
 Alpha  occ. eigenvalues --   -0.57403  -0.57144  -0.56595  -0.56101  -0.55551
 Alpha  occ. eigenvalues --   -0.55145  -0.54480  -0.54231  -0.53679  -0.53296
 Alpha  occ. eigenvalues --   -0.53115  -0.52728  -0.52252  -0.52168  -0.51913
 Alpha  occ. eigenvalues --   -0.51660  -0.51264  -0.50658  -0.50256  -0.49718
 Alpha  occ. eigenvalues --   -0.48905  -0.48232  -0.48087  -0.47462  -0.47208
 Alpha  occ. eigenvalues --   -0.46998  -0.46491  -0.46041  -0.45879  -0.45451
 Alpha  occ. eigenvalues --   -0.44624  -0.44226  -0.43727  -0.42495  -0.42262
 Alpha  occ. eigenvalues --   -0.41879  -0.41816  -0.40677  -0.40228  -0.39873
 Alpha  occ. eigenvalues --   -0.38984  -0.38772  -0.37951  -0.36152  -0.36038
 Alpha  occ. eigenvalues --   -0.35703  -0.34710  -0.34378  -0.32071  -0.30530
 Alpha  occ. eigenvalues --   -0.30252
 Alpha virt. eigenvalues --   -0.14063  -0.12297  -0.11550  -0.11472  -0.10714
 Alpha virt. eigenvalues --   -0.09964  -0.09294  -0.06593  -0.06069  -0.04380
 Alpha virt. eigenvalues --   -0.02975  -0.02580  -0.02122  -0.01900  -0.00953

 Mulliken charges:
               1
     1  N   -0.744458
     2  C   -0.073488
     3  C    0.580509
     4  O   -0.527803
     5  C   -0.359837
     6  C    0.629675
     7  N   -0.752660
     8  O   -0.508784
     9  H    0.224934
    10  H    0.130391
    11  H    0.206376
    12  H    0.349249
    13  H    0.337177
    14  H    0.329792
    15  H    0.296508
    16  N   -0.652958
    17  C   -0.040454
    18  C    0.625421
    19  O   -0.569673
    20  C   -0.392018
    21  C    0.174810
    22  C   -0.181444
    23  C   -0.290661
    24  C   -0.136943
    25  C   -0.123379
    26  C   -0.123768
    27  H    0.350647
    28  H    0.225103
    29  H    0.131704
    30  H    0.200378
    31  H    0.162115
    32  H    0.150905
    33  H    0.159993
    34  H    0.159801
    35  H    0.162142
    36  N   -0.635953
    37  C   -0.036599
    38  C    0.630167
    39  O   -0.510485
    40  C   -0.409262
    41  C    0.628306
    42  N   -0.723343
    43  O   -0.569064
    44  H    0.354708
    45  H    0.234049
    46  H    0.221121
    47  H    0.204835
    48  H    0.365742
    49  H    0.373066
    50  N   -0.641858
    51  C   -0.025421
    52  C    0.600809
    53  O   -0.496316
    54  C   -0.312154
    55  C   -0.301825
    56  C   -0.174105
    57  N   -0.606718
    58  C    0.718366
    59  N   -0.753221
    60  N   -0.760619
    61  O   -0.563541
    62  H    0.436869
    63  H    0.357121
    64  H    0.226622
    65  H    0.171129
    66  H    0.186945
    67  H    0.175419
    68  H    0.172285
    69  H    0.194279
    70  H    0.191891
    71  H    0.393885
    72  H    0.378918
    73  H    0.409986
    74  H    0.414775
    75  H    0.369894
 Sum of Mulliken charges =   1.00000

 Dipole moment (field-independent basis, Debye):
    X=            -30.6324    Y=              1.9493    Z=            -38.7525  Tot=             49.4358
 Quadrupole moment (field-independent basis, Debye-Ang):
   XX=              2.8195   YY=           -144.6536   ZZ=             92.3688
   XY=            -41.6042   XZ=            250.5740   YZ=            -30.2599

 Normal termination of Gaussian 16 at Fri Jun  3 06:16:58 2022.
