 Gaussian 16, Revision C.01,
 Gaussian 16:  ES64L-G16RevC.01  3-Jul-2019

 ----------------------------------------------------------------------
 # B3LYP/6-31G* empiricaldispersion=gd3 guess=read geom=check nosymm in
 tegral(ultrafinegrid)
 ----------------------------------------------------------------------

 ------------------------------------------------------
 Candidate Structure: Conf:684 Charge calc in gas phase
 ------------------------------------------------------
 Structure from the checkpoint file:  "conf-684.chk"
 Charge =  1 Multiplicity = 1

                          Input orientation:
 ---------------------------------------------------------------------
 Center     Atomic      Atomic             Coordinates (Angstroms)
 Number     Number       Type             X           Y           Z
 ---------------------------------------------------------------------
      1          7           0       -9.382080    1.384823   -6.055554
      2          6           0       -9.554738   -0.007477   -5.665783
      3          6           0       -8.206538   -0.507088   -5.102028
      4          8           0       -7.601706    0.112447   -4.239695
      5          6           0      -10.155069   -0.935067   -6.745731
      6          6           0      -11.449352   -0.380722   -7.340205
      7          7           0      -11.757877   -0.875017   -8.585898
      8          8           0      -12.133773    0.460707   -6.780755
      9          1           0      -10.240819   -0.001740   -4.811132
     10          1           0       -9.436114   -1.094460   -7.554369
     11          1           0      -10.390132   -1.926575   -6.329268
     12          1           0      -12.691720   -0.673671   -8.923555
     13          1           0      -11.340378   -1.737696   -8.911370
     14          1           0       -8.798414    1.496557   -6.881352
     15          1           0      -10.293677    1.794828   -6.237189
     16          7           0       -7.657643   -1.641269   -5.671078
     17          6           0       -6.447234   -2.249262   -5.136688
     18          6           0       -5.352461   -2.306540   -6.212134
     19          8           0       -4.715742   -3.349788   -6.430549
     20          6           0       -6.709652   -3.634183   -4.493517
     21          6           0       -7.321822   -4.664158   -5.422118
     22          6           0       -8.684512   -4.615925   -5.754578
     23          6           0       -6.541846   -5.693429   -5.975298
     24          6           0       -9.241063   -5.527336   -6.657752
     25          6           0       -7.099793   -6.621381   -6.858188
     26          6           0       -8.448107   -6.529069   -7.219383
     27          1           0       -8.208581   -2.207774   -6.299035
     28          1           0       -6.105619   -1.567343   -4.348725
     29          1           0       -5.762162   -4.005616   -4.094481
     30          1           0       -7.376480   -3.455842   -3.642772
     31          1           0       -9.326616   -3.881528   -5.274087
     32          1           0       -5.490909   -5.756897   -5.712828
     33          1           0      -10.298917   -5.469651   -6.898998
     34          1           0       -6.482134   -7.418991   -7.262141
     35          1           0       -8.880813   -7.249242   -7.907617
     36          7           0       -5.104960   -1.202740   -6.962816
     37          6           0       -5.553284    0.179913   -6.859346
     38          6           0       -6.533566    0.581081   -7.979670
     39          8           0       -6.766689    1.766156   -8.202981
     40          6           0       -4.345229    1.137237   -6.924111
     41          6           0       -3.602163    1.043505   -8.256388
     42          7           0       -2.879919    2.123521   -8.607965
     43          8           0       -3.641319    0.021532   -8.960212
     44          1           0       -4.377944   -1.305415   -7.665497
     45          1           0       -6.053578    0.353776   -5.904426
     46          1           0       -3.647729    0.888690   -6.115395
     47          1           0       -4.705235    2.155399   -6.757298
     48          1           0       -2.331691    2.092613   -9.457533
     49          1           0       -2.878826    2.975610   -8.065757
     50          7           0       -7.103370   -0.411985   -8.716008
     51          6           0       -7.962342   -0.068169   -9.832231
     52          6           0       -8.894807   -1.225843  -10.159712
     53          8           0       -8.827850   -2.328518   -9.645569
     54          6           0       -7.165442    0.421474  -11.078647
     55          6           0       -6.490731   -0.621205  -11.989768
     56          6           0       -5.424858   -1.536917  -11.363850
     57          7           0       -6.062853   -2.660359  -10.663500
     58          6           0       -5.612053   -3.297931   -9.573379
     59          7           0       -4.328155   -3.244346   -9.201648
     60          7           0       -6.480389   -4.015231   -8.847204
     61          8           0       -9.810563   -1.003756  -11.109595
     62          1           0       -9.846731   -0.066061  -11.368109
     63          1           0       -6.952264   -1.378653   -8.471740
     64          1           0       -8.586142    0.776393   -9.507375
     65          1           0       -7.840836    1.018218  -11.705872
     66          1           0       -6.424636    1.127173  -10.692016
     67          1           0       -7.251453   -1.240346  -12.488084
     68          1           0       -6.001149   -0.064107  -12.796099
     69          1           0       -4.772473   -1.925200  -12.155156
     70          1           0       -4.813670   -0.973602  -10.652041
     71          1           0       -6.981555   -2.938004  -10.981494
     72          1           0       -4.119698   -3.429702   -8.211617
     73          1           0       -3.673075   -2.683180   -9.728279
     74          1           0       -6.178050   -4.562704   -8.047210
     75          1           0       -7.477183   -3.894540   -8.979832
 ---------------------------------------------------------------------

 SCF Done:  E(RB3LYP) =  -1917.49650014     A.U. after    3 cycles

 Alpha  occ. eigenvalues --  -19.34031 -19.28820 -19.24336 -19.24181 -19.23538
 Alpha  occ. eigenvalues --  -19.20894 -19.20585 -14.51157 -14.49818 -14.49793
 Alpha  occ. eigenvalues --  -14.48683 -14.47920 -14.47708 -14.46454 -14.44725
 Alpha  occ. eigenvalues --  -14.38638 -10.47019 -10.46897 -10.41784 -10.41193
 Alpha  occ. eigenvalues --  -10.40817 -10.38294 -10.38164 -10.37729 -10.35849
 Alpha  occ. eigenvalues --  -10.35554 -10.34191 -10.32576 -10.32535 -10.31567
 Alpha  occ. eigenvalues --  -10.31388 -10.29890 -10.29231 -10.29180 -10.29117
 Alpha  occ. eigenvalues --  -10.29031 -10.28925 -10.28793 -10.28559  -1.25080
 Alpha  occ. eigenvalues --   -1.16830  -1.16302  -1.15820  -1.15458  -1.15281
 Alpha  occ. eigenvalues --   -1.13148  -1.12440  -1.05811  -1.05084  -1.04254
 Alpha  occ. eigenvalues --   -1.03252  -1.02743  -1.02489  -0.99446  -0.96670
 Alpha  occ. eigenvalues --   -0.95473  -0.93272  -0.90088  -0.88771  -0.88195
 Alpha  occ. eigenvalues --   -0.85322  -0.84358  -0.83393  -0.82337  -0.79847
 Alpha  occ. eigenvalues --   -0.77762  -0.77219  -0.76353  -0.75396  -0.74550
 Alpha  occ. eigenvalues --   -0.72674  -0.71381  -0.70615  -0.70558  -0.70361
 Alpha  occ. eigenvalues --   -0.69151  -0.68944  -0.68595  -0.67586  -0.66754
 Alpha  occ. eigenvalues --   -0.65472  -0.64494  -0.63944  -0.63660  -0.62890
 Alpha  occ. eigenvalues --   -0.62690  -0.62256  -0.61081  -0.60769  -0.60334
 Alpha  occ. eigenvalues --   -0.60246  -0.59560  -0.59015  -0.58187  -0.57384
 Alpha  occ. eigenvalues --   -0.57119  -0.56662  -0.55978  -0.55918  -0.55457
 Alpha  occ. eigenvalues --   -0.55282  -0.54868  -0.54473  -0.53904  -0.53580
 Alpha  occ. eigenvalues --   -0.53348  -0.53105  -0.52553  -0.52502  -0.51818
 Alpha  occ. eigenvalues --   -0.51539  -0.51296  -0.50909  -0.50396  -0.49736
 Alpha  occ. eigenvalues --   -0.49381  -0.48912  -0.48643  -0.48488  -0.47880
 Alpha  occ. eigenvalues --   -0.47752  -0.47676  -0.47182  -0.46690  -0.46103
 Alpha  occ. eigenvalues --   -0.45939  -0.45501  -0.44062  -0.43645  -0.43254
 Alpha  occ. eigenvalues --   -0.42574  -0.41581  -0.40228  -0.39883  -0.39209
 Alpha  occ. eigenvalues --   -0.38669  -0.38451  -0.37811  -0.36428  -0.36046
 Alpha  occ. eigenvalues --   -0.35901  -0.35166  -0.34712  -0.34070  -0.33624
 Alpha  occ. eigenvalues --   -0.30869
 Alpha virt. eigenvalues --   -0.14356  -0.11640  -0.11197  -0.10719  -0.10204
 Alpha virt. eigenvalues --   -0.09842  -0.09688  -0.08183  -0.07606  -0.06657
 Alpha virt. eigenvalues --   -0.05010  -0.03323  -0.02657  -0.02501  -0.02110

 Mulliken charges:
               1
     1  N   -0.726786
     2  C   -0.051305
     3  C    0.608023
     4  O   -0.489910
     5  C   -0.439989
     6  C    0.596182
     7  N   -0.765124
     8  O   -0.481067
     9  H    0.200125
    10  H    0.145722
    11  H    0.171165
    12  H    0.352605
    13  H    0.346775
    14  H    0.309115
    15  H    0.337895
    16  N   -0.636424
    17  C   -0.079861
    18  C    0.622150
    19  O   -0.558354
    20  C   -0.345853
    21  C    0.162463
    22  C   -0.218304
    23  C   -0.212538
    24  C   -0.137640
    25  C   -0.147142
    26  C   -0.136412
    27  H    0.340552
    28  H    0.223153
    29  H    0.182130
    30  H    0.180652
    31  H    0.148524
    32  H    0.164048
    33  H    0.150531
    34  H    0.157567
    35  H    0.156222
    36  N   -0.639165
    37  C   -0.092557
    38  C    0.649352
    39  O   -0.535958
    40  C   -0.380133
    41  C    0.625402
    42  N   -0.728513
    43  O   -0.563835
    44  H    0.369803
    45  H    0.244233
    46  H    0.206046
    47  H    0.213058
    48  H    0.361947
    49  H    0.368765
    50  N   -0.629623
    51  C   -0.073250
    52  C    0.633848
    53  O   -0.511158
    54  C   -0.285355
    55  C   -0.318017
    56  C   -0.169950
    57  N   -0.605922
    58  C    0.759635
    59  N   -0.769810
    60  N   -0.789378
    61  O   -0.543938
    62  H    0.440713
    63  H    0.359192
    64  H    0.212202
    65  H    0.154815
    66  H    0.207266
    67  H    0.158741
    68  H    0.189000
    69  H    0.186166
    70  H    0.223876
    71  H    0.361662
    72  H    0.401871
    73  H    0.381587
    74  H    0.401429
    75  H    0.397064
 Sum of Mulliken charges =   1.00000

 Dipole moment (field-independent basis, Debye):
    X=            -28.7589    Y=             -8.8027    Z=            -47.9932  Tot=             56.6384
 Quadrupole moment (field-independent basis, Debye-Ang):
   XX=            -14.8615   YY=           -179.9888   ZZ=            262.2828
   XY=             83.6165   XZ=            305.2587   YZ=             64.2867

 Normal termination of Gaussian 16 at Fri Jun  3 06:16:55 2022.
