 Gaussian 16, Revision C.01,
 Gaussian 16:  ES64L-G16RevC.01  3-Jul-2019

 ----------------------------------------------------------------------
 # B3LYP/6-31G* empiricaldispersion=gd3 guess=read geom=check nosymm in
 tegral(ultrafinegrid)
 ----------------------------------------------------------------------

 ------------------------------------------------------
 Candidate Structure: Conf:749 Charge calc in gas phase
 ------------------------------------------------------
 Structure from the checkpoint file:  "conf-749.chk"
 Charge =  1 Multiplicity = 1

                          Input orientation:
 ---------------------------------------------------------------------
 Center     Atomic      Atomic             Coordinates (Angstroms)
 Number     Number       Type             X           Y           Z
 ---------------------------------------------------------------------
      1          7           0       33.496830  -28.597814   44.264244
      2          6           0       34.237084  -27.856115   43.182789
      3          6           0       35.586370  -28.496152   42.834275
      4          8           0       36.658616  -27.956384   43.041222
      5          6           0       33.248610  -27.737683   41.994700
      6          6           0       31.923028  -27.248907   42.480086
      7          6           0       30.803078  -28.114489   42.514640
      8          6           0       31.757883  -25.937763   42.991262
      9          6           0       29.589899  -27.721643   43.021725
     10          6           0       30.558858  -25.504054   43.498087
     11          6           0       29.387026  -26.376265   43.553326
     12          8           0       28.299071  -26.005064   44.021117
     13          1           0       33.264514  -29.566143   44.003397
     14          1           0       34.452381  -26.855101   43.558961
     15          1           0       33.706996  -27.080892   41.248050
     16          1           0       33.127401  -28.715383   41.518988
     17          1           0       30.916735  -29.131566   42.130430
     18          1           0       32.614091  -25.262940   42.975294
     19          1           0       28.736252  -28.391120   43.044965
     20          1           0       30.438821  -24.497805   43.885369
     21          1           0       33.996503  -28.603573   45.157873
     22          1           0       32.586564  -28.099826   44.346973
     23          7           0       35.448651  -29.736968   42.261723
     24          6           0       36.585480  -30.648407   42.075057
     25          6           0       36.081214  -32.060440   42.346869
     26          8           0       36.748452  -32.886136   42.955522
     27          6           0       37.278952  -30.448274   40.707945
     28          6           0       36.335672  -30.667653   39.524092
     29          6           0       38.527011  -31.331548   40.604770
     30          1           0       34.554609  -30.155853   42.450482
     31          1           0       37.323907  -30.449517   42.857756
     32          1           0       37.590809  -29.397939   40.720295
     33          1           0       35.437970  -30.045383   39.598892
     34          1           0       36.839867  -30.409596   38.588633
     35          1           0       36.032615  -31.719678   39.450799
     36          1           0       38.253605  -32.391802   40.583318
     37          1           0       39.202957  -31.169138   41.449992
     38          1           0       39.074825  -31.108912   39.684946
     39          7           0       34.785512  -32.361283   41.919598
     40          6           0       33.879830  -32.897055   42.964620
     41          6           0       33.713224  -31.754976   43.975965
     42          8           0       34.239854  -31.716517   45.053532
     43          6           0       32.584505  -33.452372   42.377057
     44          6           0       32.789266  -34.502201   41.273946
     45          6           0       33.568925  -35.752677   41.683602
     46          7           0       34.974160  -35.414933   41.948512
     47          6           0       35.883225  -36.224878   42.500911
     48          7           0       35.580743  -37.502765   42.796659
     49          7           0       37.116797  -35.741133   42.707993
     50          8           0       33.113253  -30.597224   43.516729
     51          1           0       32.539765  -30.735021   42.743601
     52          1           0       36.130698  -37.995789   43.486817
     53          1           0       34.363441  -31.624533   41.369188
     54          1           0       34.426122  -33.665628   43.504169
     55          1           0       31.975144  -32.633210   41.967775
     56          1           0       31.998994  -33.881290   43.199085
     57          1           0       33.293262  -34.039805   40.417313
     58          1           0       31.805618  -34.820005   40.914421
     59          1           0       33.501166  -36.502363   40.885240
     60          1           0       33.131009  -36.191198   42.588790
     61          1           0       35.349393  -34.623560   41.438694
     62          1           0       34.631147  -37.825420   42.683779
     63          1           0       37.795317  -36.314137   43.189618
     64          1           0       37.190141  -34.729472   42.843325
 ---------------------------------------------------------------------

 SCF Done:  E(RB3LYP) =  -1486.37267755     A.U. after    3 cycles

 Alpha  occ. eigenvalues --  -19.39570 -19.31057 -19.29725 -19.23788 -19.08992
 Alpha  occ. eigenvalues --  -14.55968 -14.55518 -14.53921 -14.53210 -14.51053
 Alpha  occ. eigenvalues --  -14.48618 -10.51639 -10.48754 -10.45689 -10.41350
 Alpha  occ. eigenvalues --  -10.40857 -10.40716 -10.36838 -10.36455 -10.36198
 Alpha  occ. eigenvalues --  -10.35298 -10.31265 -10.29212 -10.29049 -10.28364
 Alpha  occ. eigenvalues --  -10.24821 -10.23873 -10.23031 -10.22652 -10.20174
 Alpha  occ. eigenvalues --  -10.19804  -1.31247  -1.21385  -1.20555  -1.20293
 Alpha  occ. eigenvalues --   -1.15802  -1.10845  -1.09777  -1.09269  -1.08184
 Alpha  occ. eigenvalues --   -1.05570  -0.99157  -0.97664  -0.93614  -0.91967
 Alpha  occ. eigenvalues --   -0.90339  -0.86865  -0.85855  -0.84258  -0.82604
 Alpha  occ. eigenvalues --   -0.81582  -0.79908  -0.79768  -0.78314  -0.77805
 Alpha  occ. eigenvalues --   -0.77599  -0.76438  -0.75263  -0.73733  -0.73225
 Alpha  occ. eigenvalues --   -0.70315  -0.69801  -0.69166  -0.68814  -0.68047
 Alpha  occ. eigenvalues --   -0.67903  -0.66122  -0.65819  -0.64578  -0.64327
 Alpha  occ. eigenvalues --   -0.63804  -0.62030  -0.61262  -0.60754  -0.60434
 Alpha  occ. eigenvalues --   -0.60139  -0.59639  -0.59306  -0.58347  -0.57610
 Alpha  occ. eigenvalues --   -0.57260  -0.56676  -0.55297  -0.54275  -0.54118
 Alpha  occ. eigenvalues --   -0.53200  -0.52355  -0.52092  -0.51825  -0.51677
 Alpha  occ. eigenvalues --   -0.51429  -0.50948  -0.49926  -0.49358  -0.48931
 Alpha  occ. eigenvalues --   -0.48641  -0.47832  -0.46830  -0.46749  -0.46033
 Alpha  occ. eigenvalues --   -0.45730  -0.45502  -0.45122  -0.44958  -0.44402
 Alpha  occ. eigenvalues --   -0.42863  -0.42379  -0.41830  -0.40270  -0.38216
 Alpha  occ. eigenvalues --   -0.37930  -0.37282  -0.36788  -0.33690  -0.28915
 Alpha  occ. eigenvalues --   -0.22374  -0.20059
 Alpha virt. eigenvalues --   -0.18438  -0.16444  -0.16381  -0.13680  -0.10833
 Alpha virt. eigenvalues --   -0.10708  -0.07905  -0.06637  -0.05821  -0.05207
 Alpha virt. eigenvalues --   -0.04478  -0.04138  -0.03276  -0.03002  -0.01961

 Mulliken charges:
               1
     1  N   -0.790662
     2  C   -0.125344
     3  C    0.610760
     4  O   -0.471044
     5  C   -0.356832
     6  C    0.069422
     7  C   -0.192795
     8  C   -0.186564
     9  C   -0.208175
    10  C   -0.209756
    11  C    0.419601
    12  O   -0.579543
    13  H    0.466736
    14  H    0.221810
    15  H    0.189515
    16  H    0.092149
    17  H    0.021368
    18  H    0.108260
    19  H    0.109948
    20  H    0.128004
    21  H    0.386971
    22  H    0.407843
    23  N   -0.660238
    24  C   -0.022542
    25  C    0.573686
    26  O   -0.505882
    27  C   -0.086680
    28  C   -0.473062
    29  C   -0.453496
    30  H    0.323198
    31  H    0.214619
    32  H    0.190966
    33  H    0.158901
    34  H    0.187871
    35  H    0.121392
    36  H    0.127998
    37  H    0.170884
    38  H    0.178071
    39  N   -0.631329
    40  C   -0.070602
    41  C    0.573790
    42  O   -0.390865
    43  C   -0.306745
    44  C   -0.309948
    45  C   -0.161135
    46  N   -0.609674
    47  C    0.778118
    48  N   -0.738266
    49  N   -0.762276
    50  O   -0.639488
    51  H    0.452231
    52  H    0.386363
    53  H    0.338547
    54  H    0.221501
    55  H    0.156579
    56  H    0.199273
    57  H    0.180169
    58  H    0.206169
    59  H    0.205670
    60  H    0.183172
    61  H    0.389344
    62  H    0.389730
    63  H    0.375591
    64  H    0.426721
 Sum of Mulliken charges =   1.00000

 Dipole moment (field-independent basis, Debye):
    X=            176.4190    Y=           -177.8546    Z=            201.8108  Tot=            321.6885
 Quadrupole moment (field-independent basis, Debye-Ang):
   XX=           6220.6586   YY=           6314.4040   ZZ=           8301.1346
   XY=          -6427.4340   XZ=           7430.2672   YZ=          -7498.8594

 Normal termination of Gaussian 16 at Tue May 31 11:50:51 2022.
