 Gaussian 16, Revision C.01,
 Gaussian 16:  ES64L-G16RevC.01  3-Jul-2019

 ----------------------------------------------------------------------
 # B3LYP/6-31G* empiricaldispersion=gd3 guess=read geom=check nosymm in
 tegral(ultrafinegrid)
 ----------------------------------------------------------------------

 ------------------------------------------------------
 Candidate Structure: Conf:538 Charge calc in gas phase
 ------------------------------------------------------
 Structure from the checkpoint file:  "conf-538.chk"
 Charge =  1 Multiplicity = 1

                          Input orientation:
 ---------------------------------------------------------------------
 Center     Atomic      Atomic             Coordinates (Angstroms)
 Number     Number       Type             X           Y           Z
 ---------------------------------------------------------------------
      1          7           0       34.333773  -29.361124   45.626617
      2          6           0       35.338495  -30.400097   45.196522
      3          6           0       34.576553  -31.548730   44.576743
      4          8           0       33.331386  -31.556826   44.514258
      5          6           0       36.404799  -29.703389   44.218305
      6          6           0       36.480342  -28.258734   44.559904
      7          6           0       35.606138  -27.358475   43.886178
      8          6           0       36.889063  -27.906725   45.874002
      9          6           0       35.142934  -26.205504   44.479447
     10          6           0       36.410445  -26.776893   46.507739
     11          6           0       35.487592  -25.840856   45.853404
     12          8           0       35.028925  -24.839483   46.429631
     13          1           0       33.998051  -28.819468   44.811690
     14          1           0       35.866935  -30.704482   46.103496
     15          1           0       37.340255  -30.264803   44.351387
     16          1           0       36.071833  -29.847435   43.182163
     17          1           0       35.270681  -27.605701   42.876882
     18          1           0       37.558112  -28.580409   46.415684
     19          1           0       34.498158  -25.518410   43.938606
     20          1           0       36.738982  -26.512916   47.509564
     21          1           0       33.530167  -29.790895   46.094670
     22          1           0       34.806093  -28.653152   46.232367
     23          7           0       35.309817  -32.486066   43.923031
     24          6           0       34.648899  -33.510850   43.115144
     25          6           0       33.705378  -32.864956   42.086737
     26          8           0       32.661766  -33.448304   41.753303
     27          6           0       35.693348  -34.456415   42.462784
     28          6           0       36.632675  -33.738590   41.480181
     29          6           0       35.004601  -35.653603   41.793752
     30          1           0       36.317210  -32.499183   44.017662
     31          1           0       33.983998  -34.101072   43.753492
     32          1           0       36.293904  -34.839610   43.300116
     33          1           0       37.143008  -32.875018   41.924275
     34          1           0       37.409262  -34.427586   41.135647
     35          1           0       36.088000  -33.386770   40.596115
     36          1           0       34.390148  -35.336385   40.944327
     37          1           0       34.355405  -36.188252   42.494576
     38          1           0       35.756505  -36.356281   41.422425
     39          7           0       34.086150  -31.678181   41.561640
     40          6           0       33.206959  -30.758520   40.833796
     41          6           0       33.189279  -29.392218   41.570707
     42          8           0       33.376125  -28.347749   41.005061
     43          6           0       33.612851  -30.566200   39.364921
     44          6           0       33.591216  -31.822514   38.479979
     45          6           0       32.199744  -32.348758   38.095692
     46          7           0       31.554104  -32.992713   39.246180
     47          6           0       30.252639  -33.050091   39.508493
     48          7           0       29.335094  -32.785512   38.563487
     49          7           0       29.855995  -33.343817   40.760872
     50          8           0       32.951003  -29.443213   42.898753
     51          1           0       32.847050  -30.355589   43.255692
     52          1           0       28.359939  -32.667230   38.798016
     53          1           0       34.984137  -31.315098   41.860005
     54          1           0       32.198613  -31.175428   40.913714
     55          1           0       34.622144  -30.139991   39.351054
     56          1           0       32.965591  -29.792267   38.939540
     57          1           0       34.171640  -32.633494   38.941738
     58          1           0       34.106273  -31.583328   37.543503
     59          1           0       32.290843  -33.071473   37.275814
     60          1           0       31.570465  -31.519149   37.750532
     61          1           0       32.153275  -33.287162   40.025370
     62          1           0       29.588641  -32.732847   37.588115
     63          1           0       28.933469  -33.716972   40.934911
     64          1           0       30.568360  -33.491566   41.470859
 ---------------------------------------------------------------------

 SCF Done:  E(RB3LYP) =  -1486.49767784     A.U. after    2 cycles

 Alpha  occ. eigenvalues --  -19.30793 -19.27889 -19.26884 -19.25406 -19.10048
 Alpha  occ. eigenvalues --  -14.55725 -14.53830 -14.52633 -14.52433 -14.51709
 Alpha  occ. eigenvalues --  -14.51244 -10.49548 -10.44668 -10.43894 -10.43629
 Alpha  occ. eigenvalues --  -10.38019 -10.38014 -10.37821 -10.37526 -10.33268
 Alpha  occ. eigenvalues --  -10.33110 -10.32080 -10.31052 -10.30372 -10.29360
 Alpha  occ. eigenvalues --  -10.26044 -10.23987 -10.23450 -10.23117 -10.21550
 Alpha  occ. eigenvalues --  -10.20780  -1.21711  -1.19546  -1.18531  -1.17972
 Alpha  occ. eigenvalues --   -1.13581  -1.10598  -1.08601  -1.07360  -1.06831
 Alpha  occ. eigenvalues --   -1.06192  -1.00049  -0.94784  -0.93741  -0.91032
 Alpha  occ. eigenvalues --   -0.89664  -0.87677  -0.84413  -0.82602  -0.80972
 Alpha  occ. eigenvalues --   -0.79883  -0.79622  -0.78456  -0.76015  -0.75369
 Alpha  occ. eigenvalues --   -0.74732  -0.73703  -0.72778  -0.71667  -0.71392
 Alpha  occ. eigenvalues --   -0.70940  -0.69824  -0.68703  -0.67947  -0.67072
 Alpha  occ. eigenvalues --   -0.66498  -0.65702  -0.63943  -0.63263  -0.62808
 Alpha  occ. eigenvalues --   -0.61997  -0.61335  -0.60708  -0.60260  -0.59812
 Alpha  occ. eigenvalues --   -0.59029  -0.58532  -0.57600  -0.57088  -0.56205
 Alpha  occ. eigenvalues --   -0.55728  -0.55086  -0.55011  -0.53761  -0.53227
 Alpha  occ. eigenvalues --   -0.52892  -0.52698  -0.51932  -0.51382  -0.51182
 Alpha  occ. eigenvalues --   -0.50408  -0.49626  -0.48793  -0.48476  -0.48354
 Alpha  occ. eigenvalues --   -0.47511  -0.46972  -0.46875  -0.46393  -0.46186
 Alpha  occ. eigenvalues --   -0.45548  -0.44547  -0.43987  -0.43279  -0.42547
 Alpha  occ. eigenvalues --   -0.42241  -0.41803  -0.41026  -0.40536  -0.40161
 Alpha  occ. eigenvalues --   -0.38720  -0.38224  -0.37659  -0.33955  -0.30091
 Alpha  occ. eigenvalues --   -0.23365  -0.21416
 Alpha virt. eigenvalues --   -0.14637  -0.13706  -0.13491  -0.11242  -0.08928
 Alpha virt. eigenvalues --   -0.07481  -0.05707  -0.05592  -0.05306  -0.04810
 Alpha virt. eigenvalues --   -0.04018  -0.03736  -0.02950  -0.02734  -0.01446

 Mulliken charges:
               1
     1  N   -0.750818
     2  C   -0.110430
     3  C    0.614853
     4  O   -0.570372
     5  C   -0.371981
     6  C    0.098904
     7  C   -0.243274
     8  C   -0.228556
     9  C   -0.220761
    10  C   -0.230106
    11  C    0.416729
    12  O   -0.573993
    13  H    0.438605
    14  H    0.220508
    15  H    0.156847
    16  H    0.131916
    17  H    0.121584
    18  H    0.105049
    19  H    0.130099
    20  H    0.132718
    21  H    0.401278
    22  H    0.410145
    23  N   -0.640775
    24  C    0.000464
    25  C    0.628082
    26  O   -0.581390
    27  C   -0.133516
    28  C   -0.477272
    29  C   -0.448875
    30  H    0.358869
    31  H    0.205853
    32  H    0.167500
    33  H    0.143476
    34  H    0.190613
    35  H    0.155172
    36  H    0.146927
    37  H    0.168064
    38  H    0.176589
    39  N   -0.594586
    40  C   -0.112871
    41  C    0.620527
    42  O   -0.410818
    43  C   -0.259308
    44  C   -0.325583
    45  C   -0.150853
    46  N   -0.623090
    47  C    0.796476
    48  N   -0.757774
    49  N   -0.777265
    50  O   -0.616094
    51  H    0.452973
    52  H    0.386031
    53  H    0.368948
    54  H    0.181592
    55  H    0.180345
    56  H    0.187830
    57  H    0.164727
    58  H    0.192678
    59  H    0.192738
    60  H    0.178502
    61  H    0.408141
    62  H    0.389817
    63  H    0.375155
    64  H    0.413038
 Sum of Mulliken charges =   1.00000

 Dipole moment (field-independent basis, Debye):
    X=            152.6568    Y=           -169.8494    Z=            191.8191  Tot=            298.2407
 Quadrupole moment (field-independent basis, Debye-Ang):
   XX=           4717.6768   YY=           5680.3941   ZZ=           7503.5859
   XY=          -5441.0133   XZ=           6113.2139   YZ=          -6850.1641

 Normal termination of Gaussian 16 at Tue May 31 11:50:48 2022.
