 Gaussian 16, Revision C.01,
 Gaussian 16:  ES64L-G16RevC.01  3-Jul-2019

 ----------------------------------------------------------------------
 # B3LYP/6-31G* empiricaldispersion=gd3 guess=read geom=check nosymm in
 tegral(ultrafinegrid)
 ----------------------------------------------------------------------

 ------------------------------------------------------
 Candidate Structure: Conf:123 Charge calc in gas phase
 ------------------------------------------------------
 Structure from the checkpoint file:  "conf-123.chk"
 Charge =  1 Multiplicity = 1

                          Input orientation:
 ---------------------------------------------------------------------
 Center     Atomic      Atomic             Coordinates (Angstroms)
 Number     Number       Type             X           Y           Z
 ---------------------------------------------------------------------
      1          7           0       35.686753  -30.118996   46.888611
      2          6           0       34.510416  -29.242233   46.492734
      3          6           0       34.807229  -29.013514   44.976124
      4          8           0       36.003690  -28.986861   44.662887
      5          6           0       33.165773  -29.821297   46.991664
      6          6           0       32.599152  -30.884070   46.083461
      7          6           0       31.453280  -30.621950   45.318428
      8          6           0       33.300983  -32.071830   45.822317
      9          6           0       31.089675  -31.443786   44.253546
     10          6           0       32.968946  -32.891794   44.753185
     11          6           0       31.894271  -32.542013   43.905783
     12          8           0       31.634618  -33.215478   42.778485
     13          1           0       35.936749  -30.050345   47.878493
     14          1           0       34.705905  -28.280669   46.980648
     15          1           0       33.318605  -30.174531   48.022432
     16          1           0       32.466787  -28.981927   47.073375
     17          1           0       30.850412  -29.741468   45.537824
     18          1           0       34.108153  -32.398910   46.481152
     19          1           0       30.220789  -31.221708   43.642635
     20          1           0       33.550318  -33.777393   44.528216
     21          1           0       35.489173  -31.099923   46.653829
     22          1           0       36.458225  -29.791895   46.258916
     23          7           0       33.800959  -28.782721   44.129566
     24          6           0       34.045828  -28.322877   42.753097
     25          6           0       34.470791  -29.414421   41.751023
     26          8           0       35.075509  -29.048840   40.740702
     27          6           0       32.803014  -27.535080   42.248877
     28          6           0       31.602515  -28.447759   41.952465
     29          6           0       33.144353  -26.664115   41.032339
     30          1           0       32.850048  -28.968497   44.425057
     31          1           0       34.902238  -27.646046   42.799995
     32          1           0       32.533200  -26.862478   43.076281
     33          1           0       31.333775  -29.091382   42.797821
     34          1           0       30.723516  -27.843261   41.707657
     35          1           0       31.807908  -29.102645   41.098832
     36          1           0       33.441818  -27.280480   40.180433
     37          1           0       33.969195  -25.977761   41.251821
     38          1           0       32.271185  -26.067806   40.747444
     39          7           0       34.113013  -30.703096   41.979599
     40          6           0       34.369687  -31.703102   40.938508
     41          6           0       34.872095  -33.066202   41.483385
     42          8           0       36.018899  -33.423731   41.095060
     43          6           0       33.152569  -31.854464   40.007570
     44          6           0       33.276704  -32.962055   38.941366
     45          6           0       34.635004  -33.093570   38.220670
     46          7           0       35.233963  -31.801772   37.845881
     47          6           0       36.417372  -31.321298   38.252063
     48          7           0       37.148021  -31.933512   39.176802
     49          7           0       36.905404  -30.198014   37.657189
     50          8           0       34.101904  -33.743575   42.211544
     51          1           0       32.522025  -33.582241   42.457128
     52          1           0       38.086902  -31.591566   39.330289
     53          1           0       33.565511  -30.959340   42.791249
     54          1           0       35.178828  -31.258561   40.375926
     55          1           0       32.997208  -30.880403   39.525351
     56          1           0       32.262048  -32.060357   40.610703
     57          1           0       32.480454  -32.814213   38.201302
     58          1           0       33.086685  -33.936330   39.406006
     59          1           0       34.513593  -33.686523   37.307598
     60          1           0       35.345805  -33.617055   38.856162
     61          1           0       34.659196  -31.181044   37.291422
     62          1           0       36.728308  -32.558654   39.936178
     63          1           0       37.420622  -29.552356   38.241164
     64          1           0       36.373820  -29.762749   36.915982
 ---------------------------------------------------------------------

 SCF Done:  E(RB3LYP) =  -1486.55611973     A.U. after    1 cycles

 Alpha  occ. eigenvalues --  -19.26380 -19.23230 -19.20354 -19.17280 -19.17236
 Alpha  occ. eigenvalues --  -14.60381 -14.49855 -14.49005 -14.48378 -14.45900
 Alpha  occ. eigenvalues --  -14.45040 -10.44302 -10.43667 -10.41178 -10.37958
 Alpha  occ. eigenvalues --  -10.35207 -10.34230 -10.34050 -10.33878 -10.32021
 Alpha  occ. eigenvalues --  -10.30639 -10.30388 -10.29875 -10.29822 -10.29625
 Alpha  occ. eigenvalues --  -10.28498 -10.28305 -10.27607 -10.26962 -10.26845
 Alpha  occ. eigenvalues --  -10.25787  -1.19172  -1.14270  -1.12814  -1.12587
 Alpha  occ. eigenvalues --   -1.12295  -1.10286  -1.06240  -1.02529  -1.01932
 Alpha  occ. eigenvalues --   -1.00701  -1.00005  -0.96746  -0.92694  -0.90349
 Alpha  occ. eigenvalues --   -0.88301  -0.85446  -0.85202  -0.83272  -0.81137
 Alpha  occ. eigenvalues --   -0.78960  -0.77612  -0.76608  -0.74905  -0.74285
 Alpha  occ. eigenvalues --   -0.73653  -0.72044  -0.71413  -0.70135  -0.69001
 Alpha  occ. eigenvalues --   -0.68714  -0.67938  -0.67692  -0.65946  -0.65724
 Alpha  occ. eigenvalues --   -0.63712  -0.63150  -0.61892  -0.61453  -0.60423
 Alpha  occ. eigenvalues --   -0.59894  -0.58618  -0.57979  -0.57095  -0.56953
 Alpha  occ. eigenvalues --   -0.56577  -0.56218  -0.55329  -0.54683  -0.54254
 Alpha  occ. eigenvalues --   -0.53652  -0.53227  -0.52523  -0.52176  -0.51969
 Alpha  occ. eigenvalues --   -0.51573  -0.51063  -0.50358  -0.49929  -0.49229
 Alpha  occ. eigenvalues --   -0.48812  -0.48223  -0.47793  -0.47202  -0.46638
 Alpha  occ. eigenvalues --   -0.46513  -0.46019  -0.45413  -0.44413  -0.43859
 Alpha  occ. eigenvalues --   -0.43255  -0.42911  -0.42732  -0.42518  -0.41918
 Alpha  occ. eigenvalues --   -0.41077  -0.40310  -0.39562  -0.38902  -0.37164
 Alpha  occ. eigenvalues --   -0.35898  -0.35023  -0.33991  -0.33036  -0.31543
 Alpha  occ. eigenvalues --   -0.31024  -0.30719
 Alpha virt. eigenvalues --   -0.13722  -0.10981  -0.10401  -0.09637  -0.09127
 Alpha virt. eigenvalues --   -0.06954  -0.06041  -0.05434  -0.04269  -0.03421
 Alpha virt. eigenvalues --   -0.03115  -0.01147  -0.00988  -0.00446  -0.00130

 Mulliken charges:
               1
     1  N   -0.741520
     2  C   -0.122831
     3  C    0.659563
     4  O   -0.532054
     5  C   -0.403241
     6  C    0.184566
     7  C   -0.250973
     8  C   -0.237908
     9  C   -0.152689
    10  C   -0.158610
    11  C    0.328954
    12  O   -0.664260
    13  H    0.413246
    14  H    0.230318
    15  H    0.181391
    16  H    0.196278
    17  H    0.148674
    18  H    0.119243
    19  H    0.167251
    20  H    0.196168
    21  H    0.408465
    22  H    0.432621
    23  N   -0.635911
    24  C   -0.035577
    25  C    0.637342
    26  O   -0.549934
    27  C   -0.113173
    28  C   -0.482069
    29  C   -0.445369
    30  H    0.365764
    31  H    0.197559
    32  H    0.140878
    33  H    0.136312
    34  H    0.170830
    35  H    0.171814
    36  H    0.172933
    37  H    0.153357
    38  H    0.156453
    39  N   -0.627837
    40  C   -0.064733
    41  C    0.613333
    42  O   -0.576471
    43  C   -0.280267
    44  C   -0.303366
    45  C   -0.176121
    46  N   -0.583297
    47  C    0.771271
    48  N   -0.770780
    49  N   -0.754767
    50  O   -0.593655
    51  H    0.460333
    52  H    0.355894
    53  H    0.347710
    54  H    0.161728
    55  H    0.135200
    56  H    0.175379
    57  H    0.152911
    58  H    0.189860
    59  H    0.183448
    60  H    0.218864
    61  H    0.347927
    62  H    0.439650
    63  H    0.374205
    64  H    0.359727
 Sum of Mulliken charges =   1.00000

 Dipole moment (field-independent basis, Debye):
    X=            167.9804    Y=           -139.7948    Z=            208.8290  Tot=            302.2739
 Quadrupole moment (field-independent basis, Debye-Ang):
   XX=           5710.6120   YY=           3872.4549   ZZ=           9030.5856
   XY=          -4897.7410   XZ=           7300.5811   YZ=          -6071.5251

 Normal termination of Gaussian 16 at Tue May 31 11:50:35 2022.
