 Gaussian 16, Revision C.01,
 Gaussian 16:  ES64L-G16RevC.01  3-Jul-2019

 ----------------------------------------------------------------------
 # B3LYP/6-31G* empiricaldispersion=gd3 guess=read geom=check nosymm in
 tegral(ultrafinegrid)
 ----------------------------------------------------------------------

 ------------------------------------------------------
 Candidate Structure: Conf:472 Charge calc in gas phase
 ------------------------------------------------------
 Structure from the checkpoint file:  "conf-472.chk"
 Charge =  1 Multiplicity = 1

                          Input orientation:
 ---------------------------------------------------------------------
 Center     Atomic      Atomic             Coordinates (Angstroms)
 Number     Number       Type             X           Y           Z
 ---------------------------------------------------------------------
      1          7           0       35.836743  -30.518174   45.993677
      2          6           0       35.199573  -31.895838   45.939479
      3          6           0       33.831735  -31.583549   45.280484
      4          8           0       33.307264  -30.502940   45.557760
      5          6           0       36.162917  -32.939630   45.322415
      6          6           0       36.473385  -32.730778   43.864951
      7          6           0       35.776116  -33.443764   42.858976
      8          6           0       37.376049  -31.750656   43.425124
      9          6           0       35.838976  -33.099291   41.523730
     10          6           0       37.450297  -31.356917   42.088675
     11          6           0       36.631956  -31.973417   41.052882
     12          8           0       36.586574  -31.554591   39.871298
     13          1           0       35.117228  -29.865563   46.344208
     14          1           0       34.989691  -32.156691   46.984043
     15          1           0       37.071042  -32.935339   45.943912
     16          1           0       35.702637  -33.921792   45.493377
     17          1           0       35.189290  -34.321096   43.147523
     18          1           0       38.023464  -31.253044   44.151049
     19          1           0       35.316753  -33.680214   40.768481
     20          1           0       38.195048  -30.632999   41.765563
     21          1           0       36.673225  -30.494793   46.582545
     22          1           0       36.069023  -30.168045   45.037156
     23          7           0       33.267346  -32.478758   44.445952
     24          6           0       32.037569  -32.118186   43.734991
     25          6           0       32.246296  -30.915209   42.798703
     26          8           0       31.255513  -30.244179   42.464881
     27          6           0       31.407439  -33.343167   43.018484
     28          6           0       32.136292  -33.713804   41.718913
     29          6           0       29.910818  -33.115120   42.763392
     30          1           0       33.811301  -33.262679   44.111555
     31          1           0       31.332800  -31.742891   44.482222
     32          1           0       31.506405  -34.176572   43.727716
     33          1           0       33.212963  -33.843368   41.855368
     34          1           0       31.734609  -34.647558   41.314065
     35          1           0       31.995640  -32.937152   40.956647
     36          1           0       29.752601  -32.259350   42.100291
     37          1           0       29.370054  -32.922614   43.696276
     38          1           0       29.472446  -34.001178   42.293355
     39          7           0       33.497328  -30.639719   42.366181
     40          6           0       33.895094  -29.294967   41.924017
     41          6           0       34.683227  -28.663427   43.085969
     42          8           0       34.275244  -27.733413   43.730389
     43          6           0       34.629051  -29.274347   40.571448
     44          6           0       33.917474  -30.032321   39.439559
     45          6           0       32.713122  -29.319578   38.815142
     46          7           0       31.605608  -29.176254   39.778703
     47          6           0       30.856354  -28.092602   39.974110
     48          7           0       30.750997  -27.142489   39.026914
     49          7           0       30.220617  -27.938092   41.144904
     50          8           0       35.851657  -29.275562   43.430766
     51          1           0       36.217174  -29.935320   42.773287
     52          1           0       30.345314  -26.241816   39.234519
     53          1           0       34.232944  -31.325650   42.523387
     54          1           0       32.982274  -28.706727   41.876720
     55          1           0       35.620867  -29.725041   40.653863
     56          1           0       34.779033  -28.221687   40.296614
     57          1           0       33.625853  -31.030628   39.787857
     58          1           0       34.651709  -30.215916   38.650300
     59          1           0       32.358989  -29.875377   37.939214
     60          1           0       33.009201  -28.317488   38.485071
     61          1           0       31.525456  -29.874260   40.518185
     62          1           0       31.034889  -27.320373   38.075348
     63          1           0       29.429575  -27.316717   41.230266
     64          1           0       30.404604  -28.609808   41.889978
 ---------------------------------------------------------------------

 SCF Done:  E(RB3LYP) =  -1486.54085974     A.U. after    1 cycles

 Alpha  occ. eigenvalues --  -19.29663 -19.25465 -19.25227 -19.24057 -19.13579
 Alpha  occ. eigenvalues --  -14.57697 -14.51765 -14.50540 -14.50302 -14.49481
 Alpha  occ. eigenvalues --  -14.48635 -10.47405 -10.42810 -10.42332 -10.42050
 Alpha  occ. eigenvalues --  -10.39168 -10.35286 -10.35043 -10.35042 -10.32029
 Alpha  occ. eigenvalues --  -10.30853 -10.29767 -10.29125 -10.28981 -10.27715
 Alpha  occ. eigenvalues --  -10.27655 -10.27595 -10.27002 -10.26875 -10.24721
 Alpha  occ. eigenvalues --  -10.24358  -1.20019  -1.18143  -1.16659  -1.15784
 Alpha  occ. eigenvalues --   -1.12344  -1.11757  -1.06421  -1.05168  -1.04575
 Alpha  occ. eigenvalues --   -1.03941  -1.03486  -0.93831  -0.92004  -0.90856
 Alpha  occ. eigenvalues --   -0.89328  -0.86885  -0.83213  -0.82237  -0.81235
 Alpha  occ. eigenvalues --   -0.79972  -0.78478  -0.77591  -0.75499  -0.73586
 Alpha  occ. eigenvalues --   -0.73307  -0.72644  -0.71824  -0.71541  -0.70960
 Alpha  occ. eigenvalues --   -0.69737  -0.69167  -0.68406  -0.67764  -0.66335
 Alpha  occ. eigenvalues --   -0.65110  -0.64702  -0.64520  -0.64003  -0.61844
 Alpha  occ. eigenvalues --   -0.60403  -0.60131  -0.59612  -0.58753  -0.57520
 Alpha  occ. eigenvalues --   -0.57298  -0.56560  -0.56175  -0.55418  -0.54697
 Alpha  occ. eigenvalues --   -0.54637  -0.54359  -0.53798  -0.53255  -0.52596
 Alpha  occ. eigenvalues --   -0.52367  -0.51932  -0.51374  -0.50878  -0.49609
 Alpha  occ. eigenvalues --   -0.49481  -0.49195  -0.48680  -0.48503  -0.47736
 Alpha  occ. eigenvalues --   -0.46981  -0.45971  -0.45784  -0.45204  -0.44668
 Alpha  occ. eigenvalues --   -0.44581  -0.44126  -0.43825  -0.42421  -0.42266
 Alpha  occ. eigenvalues --   -0.41873  -0.41661  -0.41077  -0.40366  -0.39583
 Alpha  occ. eigenvalues --   -0.39446  -0.37808  -0.37304  -0.36096  -0.33328
 Alpha  occ. eigenvalues --   -0.27325  -0.25295
 Alpha virt. eigenvalues --   -0.12868  -0.12234  -0.11508  -0.09123  -0.08659
 Alpha virt. eigenvalues --   -0.07702  -0.06978  -0.05880  -0.03513  -0.03293
 Alpha virt. eigenvalues --   -0.02614  -0.02129  -0.01539  -0.01156  -0.00094

 Mulliken charges:
               1
     1  N   -0.763692
     2  C   -0.120550
     3  C    0.644907
     4  O   -0.524584
     5  C   -0.403555
     6  C    0.155152
     7  C   -0.241895
     8  C   -0.200993
     9  C   -0.228262
    10  C   -0.332951
    11  C    0.441454
    12  O   -0.620721
    13  H    0.425860
    14  H    0.218952
    15  H    0.173875
    16  H    0.182268
    17  H    0.126620
    18  H    0.108091
    19  H    0.136571
    20  H    0.151595
    21  H    0.403138
    22  H    0.454887
    23  N   -0.637440
    24  C   -0.025357
    25  C    0.643723
    26  O   -0.576632
    27  C   -0.120249
    28  C   -0.480376
    29  C   -0.449208
    30  H    0.354063
    31  H    0.211859
    32  H    0.158344
    33  H    0.157346
    34  H    0.178119
    35  H    0.148340
    36  H    0.159161
    37  H    0.159232
    38  H    0.166407
    39  N   -0.608047
    40  C   -0.092504
    41  C    0.621774
    42  O   -0.422976
    43  C   -0.312482
    44  C   -0.301734
    45  C   -0.159678
    46  N   -0.608546
    47  C    0.792828
    48  N   -0.759241
    49  N   -0.780229
    50  O   -0.651366
    51  H    0.427635
    52  H    0.380982
    53  H    0.367141
    54  H    0.178766
    55  H    0.217705
    56  H    0.155913
    57  H    0.169948
    58  H    0.217959
    59  H    0.189912
    60  H    0.168418
    61  H    0.390811
    62  H    0.386489
    63  H    0.369453
    64  H    0.427571
 Sum of Mulliken charges =   1.00000

 Dipole moment (field-independent basis, Debye):
    X=            154.2244    Y=           -142.7934    Z=            206.2859  Tot=            294.4979
 Quadrupole moment (field-independent basis, Debye-Ang):
   XX=           4792.0422   YY=           4096.8952   ZZ=           8740.4666
   XY=          -4597.6804   XZ=           6687.1739   YZ=          -6180.7313

 Normal termination of Gaussian 16 at Tue May 31 11:50:37 2022.
