 Gaussian 16, Revision C.01,
 Gaussian 16:  ES64L-G16RevC.01  3-Jul-2019

 ----------------------------------------------------------------------
 # B3LYP/6-31G* empiricaldispersion=gd3 guess=read geom=check nosymm in
 tegral(ultrafinegrid)
 ----------------------------------------------------------------------

 ------------------------------------------------------
 Candidate Structure: Conf:962 Charge calc in gas phase
 ------------------------------------------------------
 Structure from the checkpoint file:  "conf-962.chk"
 Charge =  1 Multiplicity = 1

                          Input orientation:
 ---------------------------------------------------------------------
 Center     Atomic      Atomic             Coordinates (Angstroms)
 Number     Number       Type             X           Y           Z
 ---------------------------------------------------------------------
      1          7           0       31.498191  -29.230357   40.193587
      2          6           0       30.797789  -30.307445   41.003635
      3          6           0       31.867793  -31.428506   41.027153
      4          8           0       32.572040  -31.555338   40.023310
      5          6           0       30.213175  -29.735039   42.318658
      6          6           0       31.238076  -29.272245   43.318488
      7          6           0       31.644540  -30.106158   44.388916
      8          6           0       31.920371  -28.053816   43.181282
      9          6           0       32.754947  -29.835155   45.162832
     10          6           0       33.061430  -27.754632   43.926435
     11          6           0       33.590400  -28.665898   44.932652
     12          8           0       34.681270  -28.480727   45.523734
     13          1           0       32.306599  -28.825118   40.716969
     14          1           0       29.984252  -30.666620   40.361465
     15          1           0       29.522123  -28.928526   42.030649
     16          1           0       29.575109  -30.523060   42.740141
     17          1           0       31.036991  -30.983201   44.631866
     18          1           0       31.571584  -27.323326   42.447491
     19          1           0       33.028951  -30.476204   45.996231
     20          1           0       33.540546  -26.782088   43.838564
     21          1           0       31.922616  -29.695180   39.374931
     22          1           0       30.863878  -28.481504   39.903921
     23          7           0       31.995084  -32.214359   42.114620
     24          6           0       33.090599  -33.186205   42.171035
     25          6           0       34.468321  -32.503044   42.121861
     26          8           0       35.447415  -33.168207   41.744583
     27          6           0       32.936561  -34.157276   43.372724
     28          6           0       33.339541  -33.519700   44.710111
     29          6           0       33.715680  -35.457015   43.126406
     30          1           0       31.522585  -31.962368   42.972190
     31          1           0       33.056645  -33.762770   41.242393
     32          1           0       31.866932  -34.406135   43.409389
     33          1           0       33.102429  -34.195649   45.537152
     34          1           0       34.419322  -33.327075   44.741656
     35          1           0       32.834614  -32.568882   44.898740
     36          1           0       34.787243  -35.258686   43.028852
     37          1           0       33.381292  -35.957332   42.211185
     38          1           0       33.567414  -36.146219   43.963796
     39          7           0       34.564126  -31.208930   42.501565
     40          6           0       35.647642  -30.332693   42.032183
     41          6           0       35.052767  -29.452883   40.917573
     42          8           0       35.371202  -29.549141   39.761696
     43          6           0       36.347399  -29.548541   43.156487
     44          6           0       36.814078  -30.403195   44.345556
     45          6           0       38.081234  -31.232854   44.112747
     46          7           0       37.866239  -32.281799   43.098314
     47          6           0       38.695135  -32.614667   42.110446
     48          7           0       40.005412  -32.314326   42.174033
     49          7           0       38.206471  -33.234584   41.026126
     50          8           0       34.052867  -28.601457   41.283577
     51          1           0       33.937169  -28.449412   42.265903
     52          1           0       40.598579  -32.392989   41.361098
     53          1           0       33.770873  -30.775213   42.969427
     54          1           0       36.354345  -30.973345   41.510948
     55          1           0       35.685835  -28.788174   43.578173
     56          1           0       37.196540  -29.017793   42.705500
     57          1           0       35.995180  -31.051624   44.680093
     58          1           0       36.997690  -29.729239   45.186875
     59          1           0       38.403663  -31.699390   45.050827
     60          1           0       38.888960  -30.580541   43.762193
     61          1           0       36.922037  -32.652267   42.989629
     62          1           0       40.437908  -32.047248   43.045438
     63          1           0       38.809355  -33.760643   40.410560
     64          1           0       37.196263  -33.349727   40.946333
 ---------------------------------------------------------------------

 SCF Done:  E(RB3LYP) =  -1486.54086700     A.U. after    1 cycles

 Alpha  occ. eigenvalues --  -19.29666 -19.25463 -19.25229 -19.24054 -19.13579
 Alpha  occ. eigenvalues --  -14.57694 -14.51762 -14.50532 -14.50301 -14.49484
 Alpha  occ. eigenvalues --  -14.48634 -10.47401 -10.42810 -10.42332 -10.42052
 Alpha  occ. eigenvalues --  -10.39168 -10.35287 -10.35042 -10.35039 -10.32029
 Alpha  occ. eigenvalues --  -10.30854 -10.29766 -10.29123 -10.28975 -10.27710
 Alpha  occ. eigenvalues --  -10.27653 -10.27591 -10.27003 -10.26872 -10.24718
 Alpha  occ. eigenvalues --  -10.24356  -1.20020  -1.18143  -1.16659  -1.15781
 Alpha  occ. eigenvalues --   -1.12342  -1.11753  -1.06421  -1.05163  -1.04575
 Alpha  occ. eigenvalues --   -1.03940  -1.03484  -0.93829  -0.92003  -0.90854
 Alpha  occ. eigenvalues --   -0.89327  -0.86883  -0.83212  -0.82234  -0.81234
 Alpha  occ. eigenvalues --   -0.79968  -0.78477  -0.77588  -0.75498  -0.73590
 Alpha  occ. eigenvalues --   -0.73305  -0.72642  -0.71824  -0.71540  -0.70956
 Alpha  occ. eigenvalues --   -0.69735  -0.69164  -0.68405  -0.67761  -0.66333
 Alpha  occ. eigenvalues --   -0.65108  -0.64699  -0.64517  -0.64004  -0.61843
 Alpha  occ. eigenvalues --   -0.60400  -0.60132  -0.59610  -0.58753  -0.57522
 Alpha  occ. eigenvalues --   -0.57295  -0.56560  -0.56176  -0.55417  -0.54695
 Alpha  occ. eigenvalues --   -0.54636  -0.54360  -0.53797  -0.53252  -0.52596
 Alpha  occ. eigenvalues --   -0.52367  -0.51934  -0.51369  -0.50877  -0.49608
 Alpha  occ. eigenvalues --   -0.49478  -0.49193  -0.48679  -0.48501  -0.47735
 Alpha  occ. eigenvalues --   -0.46977  -0.45967  -0.45783  -0.45199  -0.44669
 Alpha  occ. eigenvalues --   -0.44581  -0.44125  -0.43823  -0.42420  -0.42266
 Alpha  occ. eigenvalues --   -0.41871  -0.41658  -0.41073  -0.40366  -0.39581
 Alpha  occ. eigenvalues --   -0.39444  -0.37808  -0.37303  -0.36095  -0.33323
 Alpha  occ. eigenvalues --   -0.27324  -0.25293
 Alpha virt. eigenvalues --   -0.12869  -0.12234  -0.11502  -0.09120  -0.08657
 Alpha virt. eigenvalues --   -0.07701  -0.06978  -0.05878  -0.03513  -0.03288
 Alpha virt. eigenvalues --   -0.02620  -0.02126  -0.01542  -0.01159  -0.00094

 Mulliken charges:
               1
     1  N   -0.763759
     2  C   -0.120503
     3  C    0.644848
     4  O   -0.524600
     5  C   -0.403572
     6  C    0.155190
     7  C   -0.241767
     8  C   -0.200981
     9  C   -0.228121
    10  C   -0.333027
    11  C    0.441276
    12  O   -0.620671
    13  H    0.454977
    14  H    0.218938
    15  H    0.173873
    16  H    0.182205
    17  H    0.126496
    18  H    0.108111
    19  H    0.136608
    20  H    0.151615
    21  H    0.425859
    22  H    0.403134
    23  N   -0.637550
    24  C   -0.025065
    25  C    0.643791
    26  O   -0.576729
    27  C   -0.120340
    28  C   -0.480350
    29  C   -0.449302
    30  H    0.354050
    31  H    0.211804
    32  H    0.158275
    33  H    0.178084
    34  H    0.148358
    35  H    0.157398
    36  H    0.159225
    37  H    0.159223
    38  H    0.166420
    39  N   -0.607960
    40  C   -0.092435
    41  C    0.621609
    42  O   -0.423010
    43  C   -0.312472
    44  C   -0.301780
    45  C   -0.159587
    46  N   -0.608790
    47  C    0.793011
    48  N   -0.759289
    49  N   -0.780282
    50  O   -0.651317
    51  H    0.427651
    52  H    0.380947
    53  H    0.367169
    54  H    0.178858
    55  H    0.217760
    56  H    0.155919
    57  H    0.170003
    58  H    0.217840
    59  H    0.189820
    60  H    0.168487
    61  H    0.390996
    62  H    0.386495
    63  H    0.369433
    64  H    0.427507
 Sum of Mulliken charges =   1.00000

 Dipole moment (field-independent basis, Debye):
    X=            169.1293    Y=           -154.7913    Z=            197.9684  Tot=            302.9135
 Quadrupole moment (field-independent basis, Debye-Ang):
   XX=           5894.1729   YY=           4815.9929   ZZ=           7965.9714
   XY=          -5477.4843   XZ=           6990.9418   YZ=          -6407.8281

 Normal termination of Gaussian 16 at Tue May 31 11:50:32 2022.
