 Gaussian 16, Revision C.01,
 Gaussian 16:  ES64L-G16RevC.01  3-Jul-2019

 ----------------------------------------------------------------------
 # B3LYP/6-31G* empiricaldispersion=gd3 guess=read geom=check nosymm in
 tegral(ultrafinegrid)
 ----------------------------------------------------------------------

 ------------------------------------------------------
 Candidate Structure: Conf:669 Charge calc in gas phase
 ------------------------------------------------------
 Structure from the checkpoint file:  "conf-669.chk"
 Charge =  1 Multiplicity = 1

                          Input orientation:
 ---------------------------------------------------------------------
 Center     Atomic      Atomic             Coordinates (Angstroms)
 Number     Number       Type             X           Y           Z
 ---------------------------------------------------------------------
      1          7           0       30.243022  -30.768915   43.061433
      2          6           0       30.567345  -29.943569   41.828454
      3          6           0       31.837042  -29.181182   42.285936
      4          8           0       31.899621  -28.853324   43.472676
      5          6           0       30.579687  -30.818363   40.550581
      6          6           0       31.686446  -31.836012   40.490516
      7          6           0       32.884043  -31.573066   39.781277
      8          6           0       31.640524  -33.035745   41.216876
      9          6           0       34.014873  -32.353147   39.915569
     10          6           0       32.768163  -33.837570   41.396626
     11          6           0       34.055721  -33.508743   40.799338
     12          8           0       35.111018  -34.139924   41.047445
     13          1           0       30.961879  -31.509526   43.223780
     14          1           0       29.764193  -29.199508   41.761012
     15          1           0       29.585111  -31.283760   40.478606
     16          1           0       30.633220  -30.123070   39.702371
     17          1           0       32.903952  -30.737212   39.075409
     18          1           0       30.703046  -33.343256   41.686249
     19          1           0       34.912019  -32.146179   39.338630
     20          1           0       32.693374  -34.788537   41.919293
     21          1           0       30.325759  -30.140553   43.876782
     22          1           0       29.313268  -31.193854   43.016755
     23          7           0       32.811685  -28.903473   41.397410
     24          6           0       34.058372  -28.294230   41.869195
     25          6           0       34.799455  -29.200172   42.867883
     26          8           0       35.609800  -28.679501   43.652511
     27          6           0       34.954433  -27.830223   40.689106
     28          6           0       35.692890  -28.991270   40.007717
     29          6           0       35.940006  -26.745679   41.146772
     30          1           0       32.797643  -29.340856   40.486048
     31          1           0       33.782871  -27.422465   42.469282
     32          1           0       34.265777  -27.376482   39.962960
     33          1           0       35.025737  -29.801549   39.702838
     34          1           0       36.215815  -28.633821   39.115560
     35          1           0       36.445355  -29.423960   40.679019
     36          1           0       35.416692  -25.880431   41.567766
     37          1           0       36.537358  -26.400845   40.296798
     38          1           0       36.620075  -27.132212   41.911740
     39          7           0       34.549443  -30.528759   42.847742
     40          6           0       34.771222  -31.385016   44.022475
     41          6           0       33.390106  -31.627541   44.658032
     42          8           0       33.067826  -31.177030   45.725697
     43          6           0       35.567510  -32.666706   43.719768
     44          6           0       36.880311  -32.444567   42.952081
     45          6           0       38.048726  -31.893722   43.776483
     46          7           0       37.781891  -30.522701   44.250376
     47          6           0       38.028827  -30.039161   45.466508
     48          7           0       38.930215  -30.625275   46.275776
     49          7           0       37.346501  -28.967451   45.896326
     50          8           0       32.484555  -32.310577   43.901751
     51          1           0       32.846456  -32.788876   43.100741
     52          1           0       38.987242  -30.384069   47.254268
     53          1           0       34.019441  -30.916267   42.069688
     54          1           0       35.291387  -30.771354   44.753477
     55          1           0       34.981810  -33.361407   43.113161
     56          1           0       35.760865  -33.165706   44.678798
     57          1           0       36.697019  -31.802505   42.081931
     58          1           0       37.184582  -33.406252   42.529816
     59          1           0       38.966515  -31.895662   43.177089
     60          1           0       38.213498  -32.530863   44.652700
     61          1           0       37.161556  -29.937962   43.690218
     62          1           0       39.600835  -31.287913   45.916760
     63          1           0       37.693952  -28.398063   46.654087
     64          1           0       36.589121  -28.608643   45.315144
 ---------------------------------------------------------------------

 SCF Done:  E(RB3LYP) =  -1486.54087924     A.U. after    1 cycles

 Alpha  occ. eigenvalues --  -19.29663 -19.25465 -19.25225 -19.24048 -19.13572
 Alpha  occ. eigenvalues --  -14.57684 -14.51762 -14.50532 -14.50299 -14.49488
 Alpha  occ. eigenvalues --  -14.48625 -10.47400 -10.42812 -10.42326 -10.42047
 Alpha  occ. eigenvalues --  -10.39166 -10.35290 -10.35039 -10.35036 -10.32027
 Alpha  occ. eigenvalues --  -10.30858 -10.29759 -10.29122 -10.28973 -10.27715
 Alpha  occ. eigenvalues --  -10.27647 -10.27587 -10.27004 -10.26867 -10.24712
 Alpha  occ. eigenvalues --  -10.24348  -1.20018  -1.18143  -1.16656  -1.15781
 Alpha  occ. eigenvalues --   -1.12336  -1.11748  -1.06416  -1.05163  -1.04570
 Alpha  occ. eigenvalues --   -1.03938  -1.03478  -0.93826  -0.92001  -0.90853
 Alpha  occ. eigenvalues --   -0.89323  -0.86879  -0.83211  -0.82227  -0.81231
 Alpha  occ. eigenvalues --   -0.79967  -0.78477  -0.77587  -0.75493  -0.73589
 Alpha  occ. eigenvalues --   -0.73303  -0.72637  -0.71821  -0.71537  -0.70951
 Alpha  occ. eigenvalues --   -0.69729  -0.69162  -0.68406  -0.67755  -0.66330
 Alpha  occ. eigenvalues --   -0.65104  -0.64697  -0.64515  -0.64000  -0.61836
 Alpha  occ. eigenvalues --   -0.60398  -0.60133  -0.59610  -0.58753  -0.57519
 Alpha  occ. eigenvalues --   -0.57296  -0.56560  -0.56173  -0.55416  -0.54692
 Alpha  occ. eigenvalues --   -0.54632  -0.54359  -0.53794  -0.53252  -0.52591
 Alpha  occ. eigenvalues --   -0.52363  -0.51931  -0.51366  -0.50873  -0.49606
 Alpha  occ. eigenvalues --   -0.49474  -0.49189  -0.48671  -0.48502  -0.47733
 Alpha  occ. eigenvalues --   -0.46974  -0.45964  -0.45783  -0.45198  -0.44667
 Alpha  occ. eigenvalues --   -0.44582  -0.44122  -0.43825  -0.42418  -0.42262
 Alpha  occ. eigenvalues --   -0.41866  -0.41654  -0.41068  -0.40359  -0.39581
 Alpha  occ. eigenvalues --   -0.39444  -0.37804  -0.37300  -0.36090  -0.33317
 Alpha  occ. eigenvalues --   -0.27317  -0.25288
 Alpha virt. eigenvalues --   -0.12868  -0.12233  -0.11502  -0.09108  -0.08648
 Alpha virt. eigenvalues --   -0.07697  -0.06976  -0.05867  -0.03511  -0.03293
 Alpha virt. eigenvalues --   -0.02634  -0.02121  -0.01539  -0.01159  -0.00096

 Mulliken charges:
               1
     1  N   -0.763715
     2  C   -0.120538
     3  C    0.644923
     4  O   -0.524478
     5  C   -0.403581
     6  C    0.155069
     7  C   -0.241495
     8  C   -0.200790
     9  C   -0.228459
    10  C   -0.332953
    11  C    0.441494
    12  O   -0.620734
    13  H    0.454976
    14  H    0.218894
    15  H    0.173885
    16  H    0.182091
    17  H    0.126272
    18  H    0.108083
    19  H    0.136441
    20  H    0.151523
    21  H    0.425908
    22  H    0.403095
    23  N   -0.637412
    24  C   -0.024892
    25  C    0.643808
    26  O   -0.576653
    27  C   -0.120613
    28  C   -0.480195
    29  C   -0.449118
    30  H    0.353914
    31  H    0.211787
    32  H    0.158279
    33  H    0.157374
    34  H    0.178110
    35  H    0.148496
    36  H    0.159201
    37  H    0.166403
    38  H    0.159147
    39  N   -0.608198
    40  C   -0.092467
    41  C    0.621756
    42  O   -0.423197
    43  C   -0.312398
    44  C   -0.301841
    45  C   -0.159581
    46  N   -0.608717
    47  C    0.792969
    48  N   -0.759276
    49  N   -0.780285
    50  O   -0.651259
    51  H    0.427685
    52  H    0.380962
    53  H    0.367337
    54  H    0.178853
    55  H    0.217736
    56  H    0.155846
    57  H    0.170011
    58  H    0.217878
    59  H    0.189814
    60  H    0.168471
    61  H    0.390895
    62  H    0.386503
    63  H    0.369428
    64  H    0.427527
 Sum of Mulliken charges =   1.00000

 Dipole moment (field-independent basis, Debye):
    X=            167.0504    Y=           -140.6226    Z=            211.6813  Tot=            304.1209
 Quadrupole moment (field-independent basis, Debye-Ang):
   XX=           5738.8988   YY=           3920.9396   ZZ=           9168.9260
   XY=          -4888.5095   XZ=           7409.3075   YZ=          -6221.6067

 Normal termination of Gaussian 16 at Tue May 31 11:50:37 2022.
