 Gaussian 16, Revision C.01,
 Gaussian 16:  ES64L-G16RevC.01  3-Jul-2019

 ----------------------------------------------------------------------
 # B3LYP/6-31G* empiricaldispersion=gd3 guess=read geom=check nosymm in
 tegral(ultrafinegrid)
 ----------------------------------------------------------------------

 -----------------------------------------------------
 Candidate Structure: Conf:14 Charge calc in gas phase
 -----------------------------------------------------
 Structure from the checkpoint file:  "conf-14.chk"
 Charge =  1 Multiplicity = 1

                          Input orientation:
 ---------------------------------------------------------------------
 Center     Atomic      Atomic             Coordinates (Angstroms)
 Number     Number       Type             X           Y           Z
 ---------------------------------------------------------------------
      1          7           0       32.312475  -33.310645   42.391739
      2          6           0       33.532907  -34.050415   41.877653
      3          6           0       33.974866  -33.143554   40.701865
      4          8           0       33.080953  -32.742101   39.950962
      5          6           0       34.508379  -34.425662   43.020124
      6          6           0       34.735872  -33.314603   44.013100
      7          6           0       35.797839  -32.406647   43.933355
      8          6           0       33.758172  -33.094654   44.995902
      9          6           0       35.810843  -31.252221   44.709467
     10          6           0       33.766302  -31.953681   45.783648
     11          6           0       34.753086  -30.978656   45.590993
     12          8           0       34.717076  -29.774623   46.201123
     13          1           0       31.757783  -33.870867   43.043241
     14          1           0       33.147781  -34.958625   41.402245
     15          1           0       34.105064  -35.310268   43.526252
     16          1           0       35.435439  -34.775605   42.551079
     17          1           0       36.618996  -32.563308   43.240971
     18          1           0       32.978001  -33.837726   45.154894
     19          1           0       36.604227  -30.520031   44.607969
     20          1           0       33.000952  -31.800316   46.534241
     21          1           0       32.603216  -32.437791   42.871188
     22          1           0       31.739657  -33.033388   41.579687
     23          7           0       35.272755  -32.829033   40.573138
     24          6           0       35.694940  -31.747548   39.657829
     25          6           0       35.135581  -30.478322   40.340062
     26          8           0       35.620044  -30.058022   41.400165
     27          6           0       37.216420  -31.751919   39.409565
     28          6           0       38.080123  -31.807628   40.680138
     29          6           0       37.582674  -30.529453   38.553563
     30          1           0       35.874393  -33.000693   41.365232
     31          1           0       35.178663  -31.922778   38.711670
     32          1           0       37.414080  -32.657459   38.820500
     33          1           0       37.889548  -30.949994   41.329214
     34          1           0       37.921512  -32.728365   41.256307
     35          1           0       39.137910  -31.803083   40.400146
     36          1           0       36.972731  -30.473411   37.644457
     37          1           0       38.631541  -30.581160   38.248109
     38          1           0       37.445177  -29.601466   39.119690
     39          7           0       33.978337  -30.005365   39.808277
     40          6           0       32.982948  -29.202623   40.546989
     41          6           0       32.432715  -30.076639   41.697724
     42          8           0       31.285113  -30.445719   41.769119
     43          6           0       33.450099  -27.787428   40.937035
     44          6           0       32.584391  -27.152970   42.056770
     45          6           0       33.324464  -27.212306   43.398564
     46          7           0       32.555938  -26.775579   44.550866
     47          6           0       32.345532  -27.577608   45.650200
     48          7           0       32.255003  -28.871019   45.648823
     49          7           0       32.185530  -26.882101   46.834129
     50          8           0       33.310539  -30.499948   42.650146
     51          1           0       34.248023  -30.199693   42.489425
     52          1           0       33.773665  -29.497797   46.269414
     53          1           0       33.587365  -30.583108   39.073729
     54          1           0       32.130745  -29.106980   39.872895
     55          1           0       33.429353  -27.180047   40.026846
     56          1           0       34.495406  -27.839884   41.251761
     57          1           0       31.617526  -27.661626   42.155831
     58          1           0       32.351553  -26.112377   41.808386
     59          1           0       34.232878  -26.598679   43.309601
     60          1           0       33.662061  -28.228388   43.612120
     61          1           0       32.462521  -25.778469   44.687532
     62          1           0       32.166251  -29.209007   44.689703
     63          1           0       31.991827  -27.467903   47.635102
     64          1           0       32.809278  -26.107776   47.018909
 ---------------------------------------------------------------------

 SCF Done:  E(RB3LYP) =  -1486.55507400     A.U. after    1 cycles

 Alpha  occ. eigenvalues --  -19.31367 -19.27157 -19.26288 -19.25731 -19.23427
 Alpha  occ. eigenvalues --  -14.59309 -14.51255 -14.49859 -14.44593 -14.43110
 Alpha  occ. eigenvalues --  -14.37802 -10.44473 -10.44394 -10.42639 -10.40799
 Alpha  occ. eigenvalues --  -10.37854 -10.36677 -10.36637 -10.34018 -10.33964
 Alpha  occ. eigenvalues --  -10.31917 -10.31188 -10.30504 -10.30285 -10.29926
 Alpha  occ. eigenvalues --  -10.29903 -10.28984 -10.28344 -10.28229 -10.27964
 Alpha  occ. eigenvalues --  -10.27770  -1.22227  -1.19716  -1.17362  -1.13833
 Alpha  occ. eigenvalues --   -1.13646  -1.12597  -1.07707  -1.07043  -1.06048
 Alpha  occ. eigenvalues --   -0.98032  -0.96651  -0.93605  -0.93331  -0.91623
 Alpha  occ. eigenvalues --   -0.91063  -0.86154  -0.85295  -0.85073  -0.82501
 Alpha  occ. eigenvalues --   -0.79300  -0.78698  -0.77840  -0.74700  -0.73777
 Alpha  occ. eigenvalues --   -0.73517  -0.72213  -0.71680  -0.71269  -0.70691
 Alpha  occ. eigenvalues --   -0.69573  -0.69107  -0.67962  -0.67379  -0.64950
 Alpha  occ. eigenvalues --   -0.64312  -0.63739  -0.63405  -0.62023  -0.61311
 Alpha  occ. eigenvalues --   -0.60745  -0.60163  -0.58934  -0.58710  -0.57910
 Alpha  occ. eigenvalues --   -0.57079  -0.56541  -0.56406  -0.55489  -0.55115
 Alpha  occ. eigenvalues --   -0.54654  -0.54204  -0.53863  -0.53712  -0.53253
 Alpha  occ. eigenvalues --   -0.52624  -0.52349  -0.51935  -0.51750  -0.51217
 Alpha  occ. eigenvalues --   -0.50955  -0.50103  -0.49722  -0.49466  -0.48489
 Alpha  occ. eigenvalues --   -0.47883  -0.47010  -0.46446  -0.45631  -0.45272
 Alpha  occ. eigenvalues --   -0.44947  -0.44940  -0.44530  -0.44338  -0.43797
 Alpha  occ. eigenvalues --   -0.43439  -0.42239  -0.41885  -0.40901  -0.40337
 Alpha  occ. eigenvalues --   -0.38338  -0.37561  -0.36341  -0.35560  -0.34669
 Alpha  occ. eigenvalues --   -0.32391  -0.31061
 Alpha virt. eigenvalues --   -0.14715  -0.13532  -0.11133  -0.10848  -0.10000
 Alpha virt. eigenvalues --   -0.08413  -0.04860  -0.04509  -0.04427  -0.03097
 Alpha virt. eigenvalues --   -0.02617  -0.02112  -0.01461  -0.00596   0.01004

 Mulliken charges:
               1
     1  N   -0.756312
     2  C   -0.108510
     3  C    0.637235
     4  O   -0.537766
     5  C   -0.414556
     6  C    0.160799
     7  C   -0.201224
     8  C   -0.242941
     9  C   -0.177540
    10  C   -0.158068
    11  C    0.357640
    12  O   -0.672103
    13  H    0.407995
    14  H    0.230280
    15  H    0.193234
    16  H    0.189511
    17  H    0.133880
    18  H    0.124984
    19  H    0.163373
    20  H    0.169133
    21  H    0.456235
    22  H    0.432667
    23  N   -0.605815
    24  C   -0.052020
    25  C    0.600083
    26  O   -0.556154
    27  C   -0.099634
    28  C   -0.483338
    29  C   -0.468510
    30  H    0.368084
    31  H    0.186527
    32  H    0.161777
    33  H    0.195088
    34  H    0.134189
    35  H    0.178856
    36  H    0.155396
    37  H    0.178978
    38  H    0.169072
    39  N   -0.567417
    40  C   -0.075872
    41  C    0.613301
    42  O   -0.464534
    43  C   -0.294548
    44  C   -0.288111
    45  C   -0.158266
    46  N   -0.590552
    47  C    0.644531
    48  N   -0.736652
    49  N   -0.741040
    50  O   -0.644813
    51  H    0.477854
    52  H    0.452036
    53  H    0.370694
    54  H    0.204918
    55  H    0.179783
    56  H    0.185439
    57  H    0.173751
    58  H    0.166399
    59  H    0.164251
    60  H    0.157799
    61  H    0.333646
    62  H    0.297630
    63  H    0.353426
    64  H    0.335823
 Sum of Mulliken charges =   1.00000

 Dipole moment (field-independent basis, Debye):
    X=            163.0141    Y=           -150.7702    Z=            200.7617  Tot=            299.3502
 Quadrupole moment (field-independent basis, Debye-Ang):
   XX=           5362.6976   YY=           4619.4145   ZZ=           8235.9161
   XY=          -5115.4721   XZ=           6797.6272   YZ=          -6291.6896

 Normal termination of Gaussian 16 at Tue May 31 11:50:38 2022.
