 Gaussian 16, Revision C.01,
 Gaussian 16:  ES64L-G16RevC.01  3-Jul-2019

 ----------------------------------------------------------------------
 # B3LYP/6-31G* empiricaldispersion=gd3 guess=read geom=check nosymm in
 tegral(ultrafinegrid)
 ----------------------------------------------------------------------

 ------------------------------------------------------
 Candidate Structure: Conf:584 Charge calc in gas phase
 ------------------------------------------------------
 Structure from the checkpoint file:  "conf-584.chk"
 Charge =  1 Multiplicity = 1

                          Input orientation:
 ---------------------------------------------------------------------
 Center     Atomic      Atomic             Coordinates (Angstroms)
 Number     Number       Type             X           Y           Z
 ---------------------------------------------------------------------
      1          7           0       34.429231  -31.041263   46.164809
      2          6           0       35.941124  -31.023645   45.954979
      3          6           0       36.407047  -31.792664   44.689272
      4          8           0       37.559078  -32.204648   44.691744
      5          6           0       36.458768  -29.563381   46.006176
      6          6           0       35.708378  -28.673154   45.048175
      7          6           0       36.102181  -28.560347   43.709988
      8          6           0       34.499555  -28.077090   45.436176
      9          6           0       35.262534  -27.979110   42.759461
     10          6           0       33.652241  -27.495479   44.503190
     11          6           0       34.004051  -27.505312   43.147702
     12          8           0       33.133266  -27.084463   42.185808
     13          1           0       34.184876  -30.498543   46.998526
     14          1           0       36.366316  -31.584414   46.790979
     15          1           0       36.363596  -29.202255   47.038720
     16          1           0       37.529188  -29.614129   45.782775
     17          1           0       37.066739  -28.956130   43.406113
     18          1           0       34.202281  -28.085028   46.484357
     19          1           0       35.551204  -27.916706   41.714360
     20          1           0       32.691128  -27.091178   44.800983
     21          1           0       33.827464  -30.659943   45.347221
     22          1           0       34.098510  -31.999348   46.312187
     23          7           0       35.510764  -31.911746   43.685712
     24          6           0       35.652746  -32.731030   42.470568
     25          6           0       34.382703  -32.450134   41.655968
     26          8           0       33.736088  -33.382297   41.145654
     27          6           0       36.966219  -32.546326   41.657527
     28          6           0       37.164324  -31.126922   41.117506
     29          6           0       37.018635  -33.582442   40.525120
     30          1           0       34.568558  -31.514174   43.802161
     31          1           0       35.589777  -33.790848   42.743736
     32          1           0       37.769701  -32.758424   42.368272
     33          1           0       37.102231  -30.382790   41.914849
     34          1           0       38.153221  -31.037293   40.657259
     35          1           0       36.419861  -30.875971   40.351877
     36          1           0       36.922102  -34.605194   40.906300
     37          1           0       37.973839  -33.510311   39.995704
     38          1           0       36.217497  -33.420775   39.793634
     39          7           0       33.989459  -31.157293   41.561202
     40          6           0       32.572286  -30.760621   41.653219
     41          6           0       32.328020  -30.177616   43.094411
     42          8           0       32.988354  -30.796997   44.011079
     43          6           0       32.152684  -29.804141   40.533761
     44          6           0       32.341752  -30.320939   39.098541
     45          6           0       31.405709  -31.452640   38.651024
     46          7           0       31.783558  -32.730488   39.268998
     47          6           0       31.021986  -33.812650   39.358928
     48          7           0       29.887707  -33.932227   38.644849
     49          7           0       31.381962  -34.801413   40.200140
     50          8           0       31.538527  -29.241165   43.231172
     51          1           0       32.248598  -27.397380   42.456771
     52          1           0       29.207822  -34.645303   38.863739
     53          1           0       34.617376  -30.476076   41.979292
     54          1           0       31.989368  -31.685005   41.607778
     55          1           0       32.723850  -28.876391   40.642633
     56          1           0       31.105894  -29.533676   40.709006
     57          1           0       33.382781  -30.634072   38.941572
     58          1           0       32.170640  -29.485778   38.410306
     59          1           0       31.452050  -31.554521   37.558853
     60          1           0       30.370230  -31.213542   38.928151
     61          1           0       32.657854  -32.787423   39.807672
     62          1           0       29.632885  -33.243562   37.953391
     63          1           0       31.052052  -35.743254   40.045734
     64          1           0       32.237254  -34.679537   40.737947
 ---------------------------------------------------------------------

 SCF Done:  E(RB3LYP) =  -1486.58396714     A.U. after    1 cycles

 Alpha  occ. eigenvalues --  -19.24893 -19.24532 -19.21689 -19.20401 -19.18866
 Alpha  occ. eigenvalues --  -14.55782 -14.51601 -14.50071 -14.49852 -14.46868
 Alpha  occ. eigenvalues --  -14.45851 -10.47030 -10.40990 -10.39757 -10.37597
 Alpha  occ. eigenvalues --  -10.37085 -10.35223 -10.33731 -10.33091 -10.32553
 Alpha  occ. eigenvalues --  -10.30854 -10.29821 -10.28666 -10.28433 -10.28360
 Alpha  occ. eigenvalues --  -10.28235 -10.27865 -10.27475 -10.27217 -10.26122
 Alpha  occ. eigenvalues --  -10.25918  -1.16197  -1.15442  -1.13969  -1.13143
 Alpha  occ. eigenvalues --   -1.12483  -1.10390  -1.05025  -1.04835  -1.03835
 Alpha  occ. eigenvalues --   -1.03493  -1.01888  -0.94821  -0.90934  -0.90182
 Alpha  occ. eigenvalues --   -0.89098  -0.85428  -0.83890  -0.83188  -0.81222
 Alpha  occ. eigenvalues --   -0.79013  -0.77191  -0.76795  -0.75741  -0.73007
 Alpha  occ. eigenvalues --   -0.71555  -0.70833  -0.70149  -0.69888  -0.69628
 Alpha  occ. eigenvalues --   -0.68774  -0.68285  -0.67482  -0.66111  -0.64133
 Alpha  occ. eigenvalues --   -0.63912  -0.63721  -0.63227  -0.62421  -0.60996
 Alpha  occ. eigenvalues --   -0.60047  -0.59189  -0.58210  -0.57490  -0.57035
 Alpha  occ. eigenvalues --   -0.55875  -0.55402  -0.55228  -0.54512  -0.54278
 Alpha  occ. eigenvalues --   -0.54002  -0.53332  -0.52409  -0.52238  -0.51981
 Alpha  occ. eigenvalues --   -0.51020  -0.50875  -0.50674  -0.50115  -0.49548
 Alpha  occ. eigenvalues --   -0.49280  -0.48947  -0.47844  -0.47452  -0.46926
 Alpha  occ. eigenvalues --   -0.46481  -0.46157  -0.45517  -0.44693  -0.44234
 Alpha  occ. eigenvalues --   -0.44022  -0.43214  -0.42715  -0.42490  -0.42295
 Alpha  occ. eigenvalues --   -0.42182  -0.39813  -0.39402  -0.38882  -0.37829
 Alpha  occ. eigenvalues --   -0.36054  -0.35616  -0.35405  -0.34870  -0.33905
 Alpha  occ. eigenvalues --   -0.32411  -0.30621
 Alpha virt. eigenvalues --   -0.11638  -0.11085  -0.10058  -0.09122  -0.08139
 Alpha virt. eigenvalues --   -0.07247  -0.06927  -0.04942  -0.03399  -0.02889
 Alpha virt. eigenvalues --   -0.01516  -0.01232  -0.00190   0.00976   0.01310

 Mulliken charges:
               1
     1  N   -0.781046
     2  C   -0.094845
     3  C    0.623577
     4  O   -0.501899
     5  C   -0.387389
     6  C    0.160078
     7  C   -0.200093
     8  C   -0.224017
     9  C   -0.198755
    10  C   -0.126030
    11  C    0.354168
    12  O   -0.664652
    13  H    0.395294
    14  H    0.209935
    15  H    0.170614
    16  H    0.211750
    17  H    0.160906
    18  H    0.125017
    19  H    0.154905
    20  H    0.160301
    21  H    0.459192
    22  H    0.398877
    23  N   -0.714180
    24  C    0.008007
    25  C    0.579939
    26  O   -0.582793
    27  C   -0.100032
    28  C   -0.483804
    29  C   -0.454098
    30  H    0.396406
    31  H    0.180596
    32  H    0.195786
    33  H    0.153258
    34  H    0.172999
    35  H    0.142873
    36  H    0.155161
    37  H    0.167689
    38  H    0.142373
    39  N   -0.575792
    40  C   -0.094592
    41  C    0.626211
    42  O   -0.639009
    43  C   -0.280336
    44  C   -0.315381
    45  C   -0.150908
    46  N   -0.623676
    47  C    0.799870
    48  N   -0.762698
    49  N   -0.781667
    50  O   -0.546295
    51  H    0.439750
    52  H    0.379947
    53  H    0.366639
    54  H    0.164157
    55  H    0.183130
    56  H    0.167770
    57  H    0.165081
    58  H    0.178458
    59  H    0.179466
    60  H    0.173904
    61  H    0.410487
    62  H    0.386455
    63  H    0.367514
    64  H    0.415448
 Sum of Mulliken charges =   1.00000

 Dipole moment (field-independent basis, Debye):
    X=            155.6310    Y=           -157.8033    Z=            200.8954  Tot=            299.1352
 Quadrupole moment (field-independent basis, Debye-Ang):
   XX=           4885.7603   YY=           5016.8124   ZZ=           8306.2099
   XY=          -5090.7182   XZ=           6547.3781   YZ=          -6577.5089

 Normal termination of Gaussian 16 at Tue May 31 11:50:36 2022.
