 Gaussian 16, Revision C.01,
 Gaussian 16:  ES64L-G16RevC.01  3-Jul-2019

 ----------------------------------------------------------------------
 # B3LYP/6-31G* empiricaldispersion=gd3 guess=read geom=check nosymm in
 tegral(ultrafinegrid)
 ----------------------------------------------------------------------

 ------------------------------------------------------
 Candidate Structure: Conf:231 Charge calc in gas phase
 ------------------------------------------------------
 Structure from the checkpoint file:  "conf-231.chk"
 Charge =  1 Multiplicity = 1

                          Input orientation:
 ---------------------------------------------------------------------
 Center     Atomic      Atomic             Coordinates (Angstroms)
 Number     Number       Type             X           Y           Z
 ---------------------------------------------------------------------
      1          7           0       31.749488  -28.731744   40.257622
      2          6           0       33.090166  -28.029757   40.286287
      3          6           0       33.311725  -27.770432   41.792926
      4          8           0       32.305950  -27.659678   42.511633
      5          6           0       34.132549  -28.876248   39.519123
      6          6           0       34.172601  -30.326401   39.932999
      7          6           0       35.092539  -30.823108   40.873184
      8          6           0       33.293583  -31.262197   39.339497
      9          6           0       35.131000  -32.168706   41.220617
     10          6           0       33.312563  -32.604146   39.676474
     11          6           0       34.254143  -33.131970   40.617377
     12          8           0       34.304764  -34.393829   40.869302
     13          1           0       31.282893  -28.662570   39.349368
     14          1           0       32.940486  -27.055713   39.806190
     15          1           0       33.894075  -28.786812   38.451138
     16          1           0       35.108608  -28.387816   39.630735
     17          1           0       35.840226  -30.152291   41.296678
     18          1           0       32.616536  -30.932815   38.548103
     19          1           0       35.886256  -32.528280   41.915271
     20          1           0       32.646130  -33.309707   39.190322
     21          1           0       31.894164  -29.736246   40.483055
     22          1           0       31.170400  -28.323503   41.011222
     23          7           0       34.557558  -27.683270   42.270242
     24          6           0       34.798646  -27.470790   43.710185
     25          6           0       34.134412  -28.572481   44.565741
     26          8           0       33.748538  -28.323167   45.695446
     27          6           0       36.311763  -27.301844   43.993558
     28          6           0       37.122740  -28.576265   43.710417
     29          6           0       36.535512  -26.814654   45.432820
     30          1           0       35.348381  -27.784203   41.648815
     31          1           0       34.275599  -26.556361   44.003742
     32          1           0       36.656755  -26.509841   43.312223
     33          1           0       37.040364  -28.917763   42.670774
     34          1           0       38.184527  -28.393208   43.900428
     35          1           0       36.803084  -29.399418   44.359087
     36          1           0       36.196243  -27.557353   46.160596
     37          1           0       35.990734  -25.885783   45.629577
     38          1           0       37.600823  -26.627278   45.599145
     39          7           0       33.992296  -29.802266   43.978768
     40          6           0       33.189173  -30.859648   44.578214
     41          6           0       32.143598  -31.307145   43.531221
     42          8           0       31.845778  -32.452847   43.293101
     43          6           0       34.053995  -32.016979   45.098630
     44          6           0       33.274820  -33.042949   45.938606
     45          6           0       34.022954  -34.377471   46.205240
     46          7           0       34.962546  -34.805609   45.161177
     47          6           0       34.677939  -35.000580   43.856744
     48          7           0       33.425854  -34.918153   43.389652
     49          7           0       35.646057  -35.304149   42.984122
     50          8           0       31.546811  -30.298606   42.851552
     51          1           0       31.864323  -29.425249   43.165362
     52          1           0       33.381875  -34.867853   42.358022
     53          1           0       34.408695  -29.995504   43.074296
     54          1           0       32.650268  -30.390565   45.411785
     55          1           0       34.860676  -31.575678   45.694624
     56          1           0       34.520538  -32.488492   44.228875
     57          1           0       32.314188  -33.250719   45.462734
     58          1           0       33.028142  -32.606944   46.913962
     59          1           0       33.293386  -35.175481   46.382118
     60          1           0       34.627809  -34.293765   47.110814
     61          1           0       35.941594  -34.803222   45.406098
     62          1           0       32.753858  -34.320421   43.851820
     63          1           0       35.413834  -35.070470   41.988725
     64          1           0       36.598089  -35.449892   43.284510
 ---------------------------------------------------------------------

 SCF Done:  E(RB3LYP) =  -1486.56442372     A.U. after    1 cycles

 Alpha  occ. eigenvalues --  -19.30499 -19.27969 -19.25182 -19.22819 -19.16619
 Alpha  occ. eigenvalues --  -14.59796 -14.51987 -14.48702 -14.47695 -14.45466
 Alpha  occ. eigenvalues --  -14.44885 -10.45172 -10.43377 -10.43023 -10.41119
 Alpha  occ. eigenvalues --  -10.40359 -10.35762 -10.35390 -10.34155 -10.33808
 Alpha  occ. eigenvalues --  -10.31512 -10.31488 -10.30092 -10.29788 -10.28898
 Alpha  occ. eigenvalues --  -10.28862 -10.28809 -10.28519 -10.26934 -10.26485
 Alpha  occ. eigenvalues --  -10.25774  -1.21393  -1.20295  -1.15087  -1.14220
 Alpha  occ. eigenvalues --   -1.13186  -1.11947  -1.08124  -1.05498  -1.04156
 Alpha  occ. eigenvalues --   -1.01872  -0.98708  -0.95362  -0.92960  -0.90901
 Alpha  occ. eigenvalues --   -0.90758  -0.86117  -0.84386  -0.83201  -0.82342
 Alpha  occ. eigenvalues --   -0.79426  -0.78890  -0.77188  -0.75331  -0.74674
 Alpha  occ. eigenvalues --   -0.73909  -0.72257  -0.72056  -0.71384  -0.70793
 Alpha  occ. eigenvalues --   -0.69447  -0.69337  -0.69072  -0.67666  -0.66570
 Alpha  occ. eigenvalues --   -0.65111  -0.63859  -0.62784  -0.61683  -0.61005
 Alpha  occ. eigenvalues --   -0.60273  -0.59235  -0.58636  -0.58555  -0.57807
 Alpha  occ. eigenvalues --   -0.57502  -0.57254  -0.56698  -0.56131  -0.55773
 Alpha  occ. eigenvalues --   -0.55089  -0.54800  -0.54312  -0.54006  -0.53453
 Alpha  occ. eigenvalues --   -0.53292  -0.51748  -0.51162  -0.50995  -0.50955
 Alpha  occ. eigenvalues --   -0.50600  -0.49918  -0.49162  -0.48412  -0.48377
 Alpha  occ. eigenvalues --   -0.47848  -0.46955  -0.46517  -0.45743  -0.45246
 Alpha  occ. eigenvalues --   -0.45083  -0.44834  -0.44250  -0.44238  -0.43257
 Alpha  occ. eigenvalues --   -0.42935  -0.42071  -0.41966  -0.39998  -0.39356
 Alpha  occ. eigenvalues --   -0.37237  -0.37191  -0.36457  -0.36089  -0.34277
 Alpha  occ. eigenvalues --   -0.30980  -0.27411
 Alpha virt. eigenvalues --   -0.14850  -0.11228  -0.10286  -0.09282  -0.08896
 Alpha virt. eigenvalues --   -0.08014  -0.07715  -0.06568  -0.05095  -0.04181
 Alpha virt. eigenvalues --   -0.02514  -0.02023  -0.00873  -0.00646   0.00175

 Mulliken charges:
               1
     1  N   -0.738808
     2  C   -0.124622
     3  C    0.661864
     4  O   -0.551757
     5  C   -0.396974
     6  C    0.129260
     7  C   -0.232002
     8  C   -0.235208
     9  C   -0.221405
    10  C   -0.168031
    11  C    0.439130
    12  O   -0.691103
    13  H    0.411402
    14  H    0.227636
    15  H    0.189133
    16  H    0.177226
    17  H    0.113096
    18  H    0.111319
    19  H    0.109278
    20  H    0.146845
    21  H    0.427291
    22  H    0.427886
    23  N   -0.636582
    24  C   -0.014759
    25  C    0.610792
    26  O   -0.492296
    27  C   -0.132654
    28  C   -0.480306
    29  C   -0.451278
    30  H    0.358329
    31  H    0.211913
    32  H    0.152489
    33  H    0.141581
    34  H    0.183623
    35  H    0.162438
    36  H    0.179438
    37  H    0.167075
    38  H    0.164938
    39  N   -0.653903
    40  C   -0.089609
    41  C    0.627155
    42  O   -0.453917
    43  C   -0.268712
    44  C   -0.330993
    45  C   -0.148661
    46  N   -0.601248
    47  C    0.752071
    48  N   -0.763580
    49  N   -0.779432
    50  O   -0.625361
    51  H    0.461018
    52  H    0.405087
    53  H    0.357396
    54  H    0.220898
    55  H    0.163552
    56  H    0.159229
    57  H    0.182608
    58  H    0.176385
    59  H    0.198158
    60  H    0.178854
    61  H    0.348449
    62  H    0.387461
    63  H    0.417334
    64  H    0.343562
 Sum of Mulliken charges =   1.00000

 Dipole moment (field-independent basis, Debye):
    X=            164.8465    Y=           -142.7246    Z=            204.0153  Tot=            298.6083
 Quadrupole moment (field-independent basis, Debye-Ang):
   XX=           5504.7057   YY=           4097.5304   ZZ=           8519.7378
   XY=          -4913.8741   XZ=           7029.4563   YZ=          -6114.7719

 Normal termination of Gaussian 16 at Tue May 31 11:50:36 2022.
