 Gaussian 16, Revision C.01,
 Gaussian 16:  ES64L-G16RevC.01  3-Jul-2019

 ----------------------------------------------------------------------
 # B3LYP/6-31G* empiricaldispersion=gd3 guess=read geom=check nosymm in
 tegral(ultrafinegrid)
 ----------------------------------------------------------------------

 ------------------------------------------------------
 Candidate Structure: Conf:920 Charge calc in gas phase
 ------------------------------------------------------
 Structure from the checkpoint file:  "conf-920.chk"
 Charge =  1 Multiplicity = 1

                          Input orientation:
 ---------------------------------------------------------------------
 Center     Atomic      Atomic             Coordinates (Angstroms)
 Number     Number       Type             X           Y           Z
 ---------------------------------------------------------------------
      1          7           0       31.347066  -31.766371   40.239227
      2          6           0       30.649426  -31.656410   41.574336
      3          6           0       31.657357  -32.340690   42.532457
      4          8           0       32.160291  -33.393738   42.154973
      5          6           0       30.119463  -30.224844   41.837773
      6          6           0       31.162373  -29.140592   41.718194
      7          6           0       31.808379  -28.602476   42.837773
      8          6           0       31.609029  -28.740981   40.450185
      9          6           0       32.971441  -27.840797   42.704205
     10          6           0       32.758329  -27.981920   40.299038
     11          6           0       33.497546  -27.607823   41.429036
     12          8           0       34.736458  -27.057927   41.307340
     13          1           0       30.764354  -31.442727   39.465573
     14          1           0       29.788605  -32.333660   41.530879
     15          1           0       29.299769  -30.054222   41.126926
     16          1           0       29.649104  -30.231632   42.828910
     17          1           0       31.405348  -28.780018   43.833809
     18          1           0       31.071316  -29.060221   39.559347
     19          1           0       33.505777  -27.470118   43.573318
     20          1           0       33.143560  -27.746549   39.313449
     21          1           0       32.330064  -31.260537   40.259162
     22          1           0       31.588175  -32.755997   40.107005
     23          7           0       31.934049  -31.777178   43.732410
     24          6           0       33.023350  -32.324408   44.545688
     25          6           0       34.392519  -32.094484   43.875640
     26          8           0       35.292643  -32.945285   44.041688
     27          6           0       32.965952  -31.800997   46.004072
     28          6           0       33.238047  -30.293460   46.127038
     29          6           0       33.920671  -32.599556   46.903573
     30          1           0       31.566496  -30.864424   43.954917
     31          1           0       32.903980  -33.409988   44.556121
     32          1           0       31.938152  -31.996348   46.339736
     33          1           0       33.124202  -29.977247   47.168404
     34          1           0       34.257170  -30.046172   45.809620
     35          1           0       32.550743  -29.681972   45.531071
     36          1           0       34.963532  -32.452149   46.605088
     37          1           0       33.710605  -33.673107   46.856969
     38          1           0       33.814057  -32.275918   47.943743
     39          7           0       34.552663  -30.957654   43.189151
     40          6           0       35.567770  -30.722957   42.152105
     41          6           0       34.799792  -30.400246   40.818396
     42          8           0       33.733888  -31.087044   40.701755
     43          6           0       36.569829  -29.625343   42.532341
     44          6           0       37.422467  -29.862982   43.788553
     45          6           0       38.518316  -30.932167   43.659947
     46          7           0       37.927332  -32.275679   43.621814
     47          6           0       38.310202  -33.298914   42.869682
     48          7           0       39.553408  -33.376232   42.357070
     49          7           0       37.423731  -34.275845   42.600658
     50          8           0       35.285544  -29.563970   40.043773
     51          1           0       35.197767  -27.588825   40.622229
     52          1           0       39.756552  -33.994688   41.585464
     53          1           0       33.721766  -30.389473   43.068090
     54          1           0       36.072871  -31.678340   41.987271
     55          1           0       36.016325  -28.688984   42.659006
     56          1           0       37.215583  -29.467282   41.661709
     57          1           0       36.781812  -30.104998   44.648566
     58          1           0       37.928363  -28.925373   44.046209
     59          1           0       39.211688  -30.864805   44.506889
     60          1           0       39.089580  -30.765884   42.738275
     61          1           0       36.975743  -32.381844   44.004009
     62          1           0       40.265189  -32.712311   42.621861
     63          1           0       37.743621  -35.207204   42.376391
     64          1           0       36.476123  -34.165315   42.960694
 ---------------------------------------------------------------------

 SCF Done:  E(RB3LYP) =  -1486.58787847     A.U. after    1 cycles

 Alpha  occ. eigenvalues --  -19.24036 -19.23563 -19.23395 -19.18484 -19.17459
 Alpha  occ. eigenvalues --  -14.53724 -14.50924 -14.49378 -14.49082 -14.48128
 Alpha  occ. eigenvalues --  -14.46463 -10.46331 -10.41072 -10.40016 -10.37597
 Alpha  occ. eigenvalues --  -10.36203 -10.34579 -10.33950 -10.33122 -10.31994
 Alpha  occ. eigenvalues --  -10.31490 -10.30198 -10.29388 -10.29380 -10.29102
 Alpha  occ. eigenvalues --  -10.28549 -10.27891 -10.27707 -10.27334 -10.27297
 Alpha  occ. eigenvalues --  -10.26547  -1.16118  -1.15159  -1.14343  -1.12642
 Alpha  occ. eigenvalues --   -1.11213  -1.08744  -1.04941  -1.04203  -1.03201
 Alpha  occ. eigenvalues --   -1.03028  -1.01953  -0.95250  -0.91438  -0.89899
 Alpha  occ. eigenvalues --   -0.89487  -0.85044  -0.84223  -0.83552  -0.81151
 Alpha  occ. eigenvalues --   -0.78661  -0.78104  -0.76621  -0.76112  -0.72470
 Alpha  occ. eigenvalues --   -0.71801  -0.71075  -0.70338  -0.70055  -0.68857
 Alpha  occ. eigenvalues --   -0.68288  -0.67936  -0.67218  -0.66585  -0.64955
 Alpha  occ. eigenvalues --   -0.63547  -0.63217  -0.62452  -0.62307  -0.60348
 Alpha  occ. eigenvalues --   -0.59517  -0.59004  -0.58068  -0.57506  -0.57008
 Alpha  occ. eigenvalues --   -0.56399  -0.55585  -0.54916  -0.54490  -0.53957
 Alpha  occ. eigenvalues --   -0.53798  -0.53377  -0.53022  -0.52184  -0.51589
 Alpha  occ. eigenvalues --   -0.51159  -0.51082  -0.50407  -0.50031  -0.49783
 Alpha  occ. eigenvalues --   -0.49423  -0.48908  -0.48630  -0.48007  -0.47362
 Alpha  occ. eigenvalues --   -0.46144  -0.45759  -0.45606  -0.44615  -0.44214
 Alpha  occ. eigenvalues --   -0.44104  -0.43928  -0.43475  -0.43200  -0.42587
 Alpha  occ. eigenvalues --   -0.41503  -0.39720  -0.39167  -0.38687  -0.37432
 Alpha  occ. eigenvalues --   -0.37084  -0.35988  -0.34777  -0.33968  -0.32914
 Alpha  occ. eigenvalues --   -0.31638  -0.30524
 Alpha virt. eigenvalues --   -0.10867  -0.10735  -0.09978  -0.09566  -0.09112
 Alpha virt. eigenvalues --   -0.06271  -0.05941  -0.03851  -0.03288  -0.02654
 Alpha virt. eigenvalues --   -0.01770  -0.00934  -0.00572  -0.00192   0.00635

 Mulliken charges:
               1
     1  N   -0.761014
     2  C   -0.099204
     3  C    0.670721
     4  O   -0.520389
     5  C   -0.411855
     6  C    0.205438
     7  C   -0.258064
     8  C   -0.202873
     9  C   -0.180592
    10  C   -0.122503
    11  C    0.355065
    12  O   -0.667721
    13  H    0.383449
    14  H    0.211748
    15  H    0.180727
    16  H    0.179248
    17  H    0.141077
    18  H    0.119621
    19  H    0.156320
    20  H    0.164545
    21  H    0.466081
    22  H    0.407501
    23  N   -0.651445
    24  C   -0.030153
    25  C    0.634419
    26  O   -0.599327
    27  C   -0.114862
    28  C   -0.480211
    29  C   -0.446987
    30  H    0.344183
    31  H    0.204511
    32  H    0.158520
    33  H    0.178144
    34  H    0.162298
    35  H    0.135220
    36  H    0.154442
    37  H    0.161493
    38  H    0.164205
    39  N   -0.563493
    40  C   -0.077617
    41  C    0.610882
    42  O   -0.632497
    43  C   -0.273825
    44  C   -0.314693
    45  C   -0.149662
    46  N   -0.608256
    47  C    0.781799
    48  N   -0.758833
    49  N   -0.777135
    50  O   -0.568524
    51  H    0.444151
    52  H    0.378974
    53  H    0.360881
    54  H    0.154653
    55  H    0.175273
    56  H    0.166782
    57  H    0.158128
    58  H    0.175750
    59  H    0.183533
    60  H    0.166391
    61  H    0.409395
    62  H    0.383074
    63  H    0.366477
    64  H    0.416614
 Sum of Mulliken charges =   1.00000

 Dipole moment (field-independent basis, Debye):
    X=            167.6646    Y=           -155.8193    Z=            205.3060  Tot=            307.4762
 Quadrupole moment (field-independent basis, Debye-Ang):
   XX=           5779.9074   YY=           4878.0385   ZZ=           8617.4186
   XY=          -5461.5489   XZ=           7180.2752   YZ=          -6649.1181

 Normal termination of Gaussian 16 at Tue May 31 11:50:41 2022.
