 Gaussian 16, Revision C.01,
 Gaussian 16:  ES64L-G16RevC.01  3-Jul-2019

 ----------------------------------------------------------------------
 # B3LYP/6-31G* empiricaldispersion=gd3 guess=read geom=check nosymm in
 tegral(ultrafinegrid)
 ----------------------------------------------------------------------

 -----------------------------------------------------
 Candidate Structure: Conf:34 Charge calc in gas phase
 -----------------------------------------------------
 Structure from the checkpoint file:  "conf-34.chk"
 Charge =  1 Multiplicity = 1

                          Input orientation:
 ---------------------------------------------------------------------
 Center     Atomic      Atomic             Coordinates (Angstroms)
 Number     Number       Type             X           Y           Z
 ---------------------------------------------------------------------
      1          7           0       31.760594  -32.552735   41.382320
      2          6           0       32.293567  -33.487557   42.444030
      3          6           0       33.807020  -33.533287   42.095745
      4          8           0       34.101914  -33.327089   40.914239
      5          6           0       31.765766  -33.098756   43.854825
      6          6           0       31.681189  -31.615223   44.114557
      7          6           0       32.608893  -30.926047   44.900527
      8          6           0       30.645712  -30.849906   43.520215
      9          6           0       32.590902  -29.529414   44.995576
     10          6           0       30.627813  -29.470408   43.569677
     11          6           0       31.643407  -28.729961   44.265919
     12          8           0       31.725066  -27.450587   44.199196
     13          1           0       30.777022  -32.713163   41.156680
     14          1           0       31.920837  -34.484551   42.181013
     15          1           0       30.774110  -33.559985   43.950614
     16          1           0       32.392005  -33.601441   44.601526
     17          1           0       33.382371  -31.482017   45.430723
     18          1           0       29.829890  -31.365952   43.009074
     19          1           0       33.287813  -29.008578   45.648638
     20          1           0       29.831654  -28.904702   43.094478
     21          1           0       31.881030  -31.569180   41.690571
     22          1           0       32.382293  -32.691024   40.559426
     23          7           0       34.722757  -33.847089   43.026654
     24          6           0       36.127833  -34.109205   42.625076
     25          6           0       36.636001  -32.962388   41.709389
     26          8           0       37.166123  -33.190132   40.641629
     27          6           0       37.001567  -34.411292   43.863691
     28          6           0       37.085064  -33.255512   44.874260
     29          6           0       38.403344  -34.847611   43.412649
     30          1           0       34.437354  -34.057639   43.973950
     31          1           0       36.132545  -34.984788   41.968710
     32          1           0       36.524833  -35.268525   44.363695
     33          1           0       37.647638  -32.410769   44.462140
     34          1           0       36.098591  -32.889244   45.189819
     35          1           0       37.607474  -33.587728   45.776379
     36          1           0       39.006173  -35.133397   44.280039
     37          1           0       38.920836  -34.033964   42.892849
     38          1           0       38.358501  -35.703160   42.731060
     39          7           0       36.397639  -31.687561   42.180454
     40          6           0       35.904655  -30.640642   41.277068
     41          6           0       34.593597  -30.181236   41.903662
     42          8           0       33.497587  -30.207578   41.357174
     43          6           0       36.887182  -29.469254   41.054897
     44          6           0       36.202405  -28.212697   40.453200
     45          6           0       35.932849  -27.165948   41.551009
     46          7           0       34.984391  -26.095682   41.204135
     47          6           0       33.734132  -26.027313   41.718305
     48          7           0       33.018848  -27.104253   41.987551
     49          7           0       33.189374  -24.808590   41.932532
     50          8           0       34.789549  -29.754502   43.149825
     51          1           0       33.919854  -29.615204   43.633670
     52          1           0       32.350729  -27.145416   42.839285
     53          1           0       36.026995  -31.620096   43.118766
     54          1           0       35.662628  -31.106724   40.319725
     55          1           0       37.682425  -29.841485   40.403182
     56          1           0       37.357146  -29.224355   42.014617
     57          1           0       35.259277  -28.485331   39.962079
     58          1           0       36.829058  -27.769744   39.672471
     59          1           0       36.876568  -26.687410   41.834943
     60          1           0       35.549708  -27.649917   42.451189
     61          1           0       35.352144  -25.253076   40.781773
     62          1           0       33.291073  -27.996702   41.593247
     63          1           0       32.226370  -24.767936   42.241933
     64          1           0       33.778811  -24.029072   42.189945
 ---------------------------------------------------------------------

 SCF Done:  E(RB3LYP) =  -1486.53890607     A.U. after    1 cycles

 Alpha  occ. eigenvalues --  -19.30698 -19.26820 -19.26203 -19.21473 -19.15996
 Alpha  occ. eigenvalues --  -14.57768 -14.50495 -14.49489 -14.49030 -14.46057
 Alpha  occ. eigenvalues --  -14.45590 -10.44691 -10.44387 -10.43529 -10.39947
 Alpha  occ. eigenvalues --  -10.38706 -10.34459 -10.34417 -10.34209 -10.33027
 Alpha  occ. eigenvalues --  -10.31584 -10.30637 -10.29921 -10.29485 -10.28761
 Alpha  occ. eigenvalues --  -10.28614 -10.28517 -10.28051 -10.26480 -10.26068
 Alpha  occ. eigenvalues --  -10.25928  -1.22492  -1.18972  -1.13668  -1.13429
 Alpha  occ. eigenvalues --   -1.13223  -1.12350  -1.06309  -1.05511  -1.03095
 Alpha  occ. eigenvalues --   -1.02674  -1.00417  -0.94555  -0.92227  -0.90814
 Alpha  occ. eigenvalues --   -0.90026  -0.85777  -0.83894  -0.83246  -0.81318
 Alpha  occ. eigenvalues --   -0.79366  -0.78253  -0.76518  -0.75507  -0.73933
 Alpha  occ. eigenvalues --   -0.73023  -0.72575  -0.70847  -0.70446  -0.70079
 Alpha  occ. eigenvalues --   -0.68967  -0.68544  -0.67933  -0.67416  -0.66533
 Alpha  occ. eigenvalues --   -0.64771  -0.63410  -0.62396  -0.61681  -0.61277
 Alpha  occ. eigenvalues --   -0.60419  -0.60163  -0.59312  -0.58846  -0.57564
 Alpha  occ. eigenvalues --   -0.57316  -0.56542  -0.56157  -0.55545  -0.55462
 Alpha  occ. eigenvalues --   -0.54578  -0.54115  -0.53529  -0.53278  -0.52849
 Alpha  occ. eigenvalues --   -0.52342  -0.51686  -0.50955  -0.50527  -0.50208
 Alpha  occ. eigenvalues --   -0.50020  -0.49381  -0.48422  -0.48385  -0.47662
 Alpha  occ. eigenvalues --   -0.47382  -0.46632  -0.46087  -0.45492  -0.45043
 Alpha  occ. eigenvalues --   -0.44313  -0.44102  -0.43878  -0.43769  -0.43482
 Alpha  occ. eigenvalues --   -0.43081  -0.40691  -0.40455  -0.39878  -0.39764
 Alpha  occ. eigenvalues --   -0.39287  -0.37968  -0.35167  -0.34693  -0.34404
 Alpha  occ. eigenvalues --   -0.30138  -0.27616
 Alpha virt. eigenvalues --   -0.13082  -0.12761  -0.10625  -0.09849  -0.08840
 Alpha virt. eigenvalues --   -0.08020  -0.07026  -0.05884  -0.05176  -0.02950
 Alpha virt. eigenvalues --   -0.02073  -0.01380  -0.00700   0.00073   0.00568

 Mulliken charges:
               1
     1  N   -0.755191
     2  C   -0.126639
     3  C    0.669552
     4  O   -0.526881
     5  C   -0.385009
     6  C    0.150360
     7  C   -0.189078
     8  C   -0.237816
     9  C   -0.323803
    10  C   -0.178837
    11  C    0.432591
    12  O   -0.679329
    13  H    0.402789
    14  H    0.224623
    15  H    0.185450
    16  H    0.169846
    17  H    0.123176
    18  H    0.110497
    19  H    0.153381
    20  H    0.140142
    21  H    0.445440
    22  H    0.430279
    23  N   -0.651256
    24  C   -0.025694
    25  C    0.607110
    26  O   -0.475815
    27  C   -0.128683
    28  C   -0.479143
    29  C   -0.454729
    30  H    0.352058
    31  H    0.202137
    32  H    0.147006
    33  H    0.172476
    34  H    0.129945
    35  H    0.181953
    36  H    0.167837
    37  H    0.174644
    38  H    0.168726
    39  N   -0.613938
    40  C    0.003787
    41  C    0.563667
    42  O   -0.533422
    43  C   -0.281500
    44  C   -0.293965
    45  C   -0.190733
    46  N   -0.590865
    47  C    0.747919
    48  N   -0.792110
    49  N   -0.740992
    50  O   -0.577756
    51  H    0.433167
    52  H    0.432907
    53  H    0.347067
    54  H    0.207035
    55  H    0.192770
    56  H    0.165104
    57  H    0.162535
    58  H    0.171813
    59  H    0.183515
    60  H    0.200829
    61  H    0.353559
    62  H    0.371989
    63  H    0.387950
    64  H    0.365551
 Sum of Mulliken charges =   1.00000

 Dipole moment (field-independent basis, Debye):
    X=            162.5587    Y=           -145.8542    Z=            202.4550  Tot=            297.8033
 Quadrupole moment (field-independent basis, Debye-Ang):
   XX=           5344.4876   YY=           4346.8189   ZZ=           8350.3668
   XY=          -4909.5111   XZ=           6872.3706   YZ=          -6177.1601

 Normal termination of Gaussian 16 at Tue May 31 11:50:36 2022.
