 Gaussian 16, Revision C.01,
 Gaussian 16:  ES64L-G16RevC.01  3-Jul-2019

 ----------------------------------------------------------------------
 # B3LYP/6-31G* empiricaldispersion=gd3 guess=read geom=check nosymm in
 tegral(ultrafinegrid)
 ----------------------------------------------------------------------

 ------------------------------------------------------
 Candidate Structure: Conf:234 Charge calc in gas phase
 ------------------------------------------------------
 Structure from the checkpoint file:  "conf-234.chk"
 Charge =  1 Multiplicity = 1

                          Input orientation:
 ---------------------------------------------------------------------
 Center     Atomic      Atomic             Coordinates (Angstroms)
 Number     Number       Type             X           Y           Z
 ---------------------------------------------------------------------
      1          7           0       31.469157  -28.297595   41.236028
      2          6           0       32.773589  -27.778190   41.798725
      3          6           0       32.902480  -28.434681   43.195553
      4          8           0       31.964508  -29.101757   43.646470
      5          6           0       33.928275  -28.044687   40.815402
      6          6           0       33.963963  -29.437108   40.220254
      7          6           0       33.345311  -30.571405   40.785380
      8          6           0       34.728970  -29.643262   39.050029
      9          6           0       33.477559  -31.832783   40.215579
     10          6           0       34.934002  -30.902813   38.523544
     11          6           0       34.361350  -32.078961   39.116168
     12          8           0       34.672230  -33.257749   38.700658
     13          1           0       31.696131  -29.023048   40.526053
     14          1           0       32.649646  -26.702359   41.956707
     15          1           0       33.866805  -27.298285   40.012508
     16          1           0       34.860095  -27.798196   41.348398
     17          1           0       32.761174  -30.507958   41.703023
     18          1           0       35.198605  -28.786157   38.568613
     19          1           0       32.929947  -32.663158   40.648508
     20          1           0       35.558614  -31.043863   37.646569
     21          1           0       30.976810  -28.758939   42.030608
     22          1           0       30.884480  -27.570686   40.817023
     23          7           0       34.046418  -28.189296   43.855159
     24          6           0       34.197600  -28.395993   45.308219
     25          6           0       34.048477  -29.854925   45.752729
     26          8           0       33.681148  -30.096707   46.889850
     27          6           0       35.555626  -27.794510   45.765985
     28          6           0       36.760730  -28.563639   45.200437
     29          6           0       35.630173  -27.686469   47.294874
     30          1           0       34.731955  -27.589302   43.412527
     31          1           0       33.383017  -27.868238   45.814355
     32          1           0       35.573237  -26.770512   45.360422
     33          1           0       36.722973  -28.676011   44.108830
     34          1           0       37.688376  -28.036369   45.441453
     35          1           0       36.826758  -29.565429   45.639062
     36          1           0       35.601926  -28.673056   47.764943
     37          1           0       34.795028  -27.103265   47.695954
     38          1           0       36.562351  -27.191053   47.583618
     39          7           0       34.366071  -30.839777   44.846309
     40          6           0       34.402935  -32.240381   45.269089
     41          6           0       33.158889  -32.996966   44.780003
     42          8           0       33.072282  -34.205804   44.861840
     43          6           0       35.754229  -32.948918   44.930077
     44          6           0       35.786589  -33.922675   43.736748
     45          6           0       35.210743  -33.315277   42.455079
     46          7           0       35.023209  -34.263849   41.352376
     47          6           0       33.918542  -35.024963   41.194981
     48          7           0       33.187223  -35.444185   42.239503
     49          7           0       33.593942  -35.359259   39.942869
     50          8           0       32.167635  -32.269623   44.246212
     51          1           0       32.386446  -31.315910   44.290630
     52          1           0       32.282002  -35.856462   42.066470
     53          1           0       34.780185  -30.580659   43.959345
     54          1           0       34.295515  -32.207016   46.358736
     55          1           0       36.077930  -33.500198   45.817066
     56          1           0       36.494674  -32.152716   44.784203
     57          1           0       35.245629  -34.831562   44.005812
     58          1           0       36.824692  -34.224462   43.560083
     59          1           0       35.881473  -32.540108   42.073148
     60          1           0       34.256219  -32.812337   42.647563
     61          1           0       35.375916  -33.951613   40.441119
     62          1           0       33.342410  -35.131826   43.194650
     63          1           0       32.821120  -35.984353   39.765351
     64          1           0       33.908379  -34.665840   39.215364
 ---------------------------------------------------------------------

 SCF Done:  E(RB3LYP) =  -1486.54336736     A.U. after    1 cycles

 Alpha  occ. eigenvalues --  -19.30015 -19.29145 -19.24300 -19.23544 -19.16288
 Alpha  occ. eigenvalues --  -14.60467 -14.52415 -14.48724 -14.47316 -14.46425
 Alpha  occ. eigenvalues --  -14.45107 -10.45927 -10.43011 -10.42942 -10.41922
 Alpha  occ. eigenvalues --  -10.41065 -10.36513 -10.35241 -10.34276 -10.33217
 Alpha  occ. eigenvalues --  -10.32105 -10.31104 -10.30413 -10.29167 -10.28920
 Alpha  occ. eigenvalues --  -10.28917 -10.28835 -10.27450 -10.27240 -10.25837
 Alpha  occ. eigenvalues --  -10.25266  -1.21182  -1.20901  -1.15898  -1.14938
 Alpha  occ. eigenvalues --   -1.12623  -1.11687  -1.08857  -1.05008  -1.04642
 Alpha  occ. eigenvalues --   -1.01295  -0.99309  -0.95742  -0.93272  -0.91065
 Alpha  occ. eigenvalues --   -0.90646  -0.85841  -0.84502  -0.82858  -0.82428
 Alpha  occ. eigenvalues --   -0.79470  -0.79123  -0.77386  -0.75549  -0.74678
 Alpha  occ. eigenvalues --   -0.74170  -0.73041  -0.71903  -0.71456  -0.70531
 Alpha  occ. eigenvalues --   -0.69801  -0.68705  -0.68021  -0.67574  -0.66481
 Alpha  occ. eigenvalues --   -0.65891  -0.65257  -0.63497  -0.62320  -0.60878
 Alpha  occ. eigenvalues --   -0.60412  -0.59876  -0.59400  -0.58892  -0.57823
 Alpha  occ. eigenvalues --   -0.57803  -0.57218  -0.56814  -0.55725  -0.55476
 Alpha  occ. eigenvalues --   -0.55180  -0.54687  -0.54411  -0.53876  -0.53052
 Alpha  occ. eigenvalues --   -0.52542  -0.52202  -0.51992  -0.51274  -0.50603
 Alpha  occ. eigenvalues --   -0.50033  -0.49682  -0.49411  -0.48567  -0.48323
 Alpha  occ. eigenvalues --   -0.47864  -0.46620  -0.45806  -0.45688  -0.45539
 Alpha  occ. eigenvalues --   -0.45234  -0.44697  -0.44223  -0.43705  -0.43172
 Alpha  occ. eigenvalues --   -0.42728  -0.42320  -0.42107  -0.39968  -0.39570
 Alpha  occ. eigenvalues --   -0.38150  -0.37065  -0.36577  -0.35954  -0.33611
 Alpha  occ. eigenvalues --   -0.30447  -0.27032
 Alpha virt. eigenvalues --   -0.14936  -0.11036  -0.10543  -0.10105  -0.09480
 Alpha virt. eigenvalues --   -0.08193  -0.07972  -0.05949  -0.05497  -0.03710
 Alpha virt. eigenvalues --   -0.03163  -0.02739  -0.02644  -0.01360  -0.00664

 Mulliken charges:
               1
     1  N   -0.743455
     2  C   -0.129304
     3  C    0.659775
     4  O   -0.536538
     5  C   -0.357106
     6  C    0.087930
     7  C   -0.260587
     8  C   -0.179464
     9  C   -0.228699
    10  C   -0.182919
    11  C    0.415298
    12  O   -0.681343
    13  H    0.410216
    14  H    0.224030
    15  H    0.184345
    16  H    0.169087
    17  H    0.101393
    18  H    0.128683
    19  H    0.112364
    20  H    0.147203
    21  H    0.428129
    22  H    0.416460
    23  N   -0.639340
    24  C   -0.018739
    25  C    0.619092
    26  O   -0.481728
    27  C   -0.135914
    28  C   -0.471180
    29  C   -0.450819
    30  H    0.357001
    31  H    0.204238
    32  H    0.145080
    33  H    0.128814
    34  H    0.185982
    35  H    0.171138
    36  H    0.185678
    37  H    0.164837
    38  H    0.167425
    39  N   -0.671772
    40  C   -0.071243
    41  C    0.612638
    42  O   -0.478680
    43  C   -0.294894
    44  C   -0.279975
    45  C   -0.177075
    46  N   -0.585908
    47  C    0.749127
    48  N   -0.786729
    49  N   -0.771725
    50  O   -0.576907
    51  H    0.458579
    52  H    0.361094
    53  H    0.347710
    54  H    0.243643
    55  H    0.189468
    56  H    0.159616
    57  H    0.180381
    58  H    0.172353
    59  H    0.174061
    60  H    0.150315
    61  H    0.384545
    62  H    0.425157
    63  H    0.346039
    64  H    0.423119
 Sum of Mulliken charges =   1.00000

 Dipole moment (field-independent basis, Debye):
    X=            159.8582    Y=           -140.0619    Z=            203.8949  Tot=            294.5252
 Quadrupole moment (field-independent basis, Debye-Ang):
   XX=           5163.8211   YY=           3964.2558   ZZ=           8467.4448
   XY=          -4661.2045   XZ=           6816.5981   YZ=          -5946.4643

 Normal termination of Gaussian 16 at Tue May 31 11:50:34 2022.
