 Gaussian 16, Revision C.01,
 Gaussian 16:  ES64L-G16RevC.01  3-Jul-2019

 ----------------------------------------------------------------------
 # B3LYP/6-31G* empiricaldispersion=gd3 guess=read geom=check nosymm in
 tegral(ultrafinegrid)
 ----------------------------------------------------------------------

 ------------------------------------------------------
 Candidate Structure: Conf:474 Charge calc in gas phase
 ------------------------------------------------------
 Structure from the checkpoint file:  "conf-474.chk"
 Charge =  1 Multiplicity = 1

                          Input orientation:
 ---------------------------------------------------------------------
 Center     Atomic      Atomic             Coordinates (Angstroms)
 Number     Number       Type             X           Y           Z
 ---------------------------------------------------------------------
      1          7           0       35.887023  -30.470516   45.962325
      2          6           0       35.133337  -31.789008   45.971697
      3          6           0       33.793211  -31.389718   45.302750
      4          8           0       33.366582  -30.255783   45.530778
      5          6           0       35.998999  -32.938815   45.399779
      6          6           0       36.316198  -32.823678   43.933425
      7          6           0       35.552609  -33.518082   42.963256
      8          6           0       37.297645  -31.947071   43.446407
      9          6           0       35.635588  -33.241266   41.613514
     10          6           0       37.396478  -31.622445   42.093063
     11          6           0       36.520233  -32.211465   41.089082
     12          8           0       36.503191  -31.844362   39.889719
     13          1           0       35.228596  -29.743373   46.285168
     14          1           0       34.908624  -31.983976   47.027513
     15          1           0       36.908407  -32.984942   46.017673
     16          1           0       35.457046  -33.868864   45.616693
     17          1           0       34.894139  -34.327234   43.293411
     18          1           0       37.990812  -31.475155   44.146797
     19          1           0       35.059469  -33.808120   40.887338
     20          1           0       38.198990  -30.981499   41.734921
     21          1           0       36.726241  -30.493252   46.547279
     22          1           0       36.142113  -30.184428   44.990455
     23          7           0       33.147527  -32.269580   44.511940
     24          6           0       31.949123  -31.835803   43.788358
     25          6           0       32.255057  -30.700355   42.796125
     26          8           0       31.323609  -29.962775   42.433032
     27          6           0       31.208502  -33.032912   43.133365
     28          6           0       31.893315  -33.529597   41.851943
     29          6           0       29.736325  -32.685722   42.870302
     30          1           0       33.618359  -33.112935   44.213232
     31          1           0       31.285454  -31.365571   44.519364
     32          1           0       31.237579  -33.836501   43.882204
     33          1           0       32.954702  -33.749556   41.992650
     34          1           0       31.406536  -34.441443   41.493166
     35          1           0       31.818789  -32.780665   41.053467
     36          1           0       29.650027  -31.853055   42.165851
     37          1           0       29.220763  -32.400270   43.793596
     38          1           0       29.218291  -33.551553   42.445817
     39          7           0       33.522561  -30.553654   42.349242
     40          6           0       34.032271  -29.269393   41.846053
     41          6           0       34.879276  -28.657691   42.976715
     42          8           0       34.557436  -27.668280   43.580148
     43          6           0       34.756980  -29.371921   40.492223
     44          6           0       33.975948  -30.114902   39.396880
     45          6           0       32.833793  -29.328952   38.744070
     46          7           0       31.748517  -29.048549   39.702776
     47          6           0       31.094831  -27.897556   39.850045
     48          7           0       31.065239  -26.985387   38.861065
     49          7           0       30.480737  -27.637256   41.013704
     50          8           0       35.992407  -29.353166   43.345506
     51          1           0       36.295117  -30.071009   42.717532
     52          1           0       30.738260  -26.045176   39.028332
     53          1           0       34.197384  -31.291929   42.538351
     54          1           0       33.173309  -28.607109   41.774384
     55          1           0       35.707082  -29.901906   40.592201
     56          1           0       34.994881  -28.349143   40.170559
     57          1           0       33.601367  -31.067837   39.789987
     58          1           0       34.686811  -30.396059   38.615002
     59          1           0       32.427971  -29.889994   37.894297
     60          1           0       33.213058  -28.371517   38.369496
     61          1           0       31.613769  -29.702968   40.473594
     62          1           0       31.328567  -27.229082   37.918208
     63          1           0       29.745681  -26.947750   41.072094
     64          1           0       30.610628  -28.288455   41.787802
 ---------------------------------------------------------------------

 SCF Done:  E(RB3LYP) =  -1486.54085597     A.U. after    2 cycles

 Alpha  occ. eigenvalues --  -19.29668 -19.25467 -19.25229 -19.24060 -19.13573
 Alpha  occ. eigenvalues --  -14.57692 -14.51762 -14.50532 -14.50299 -14.49485
 Alpha  occ. eigenvalues --  -14.48637 -10.47401 -10.42814 -10.42335 -10.42053
 Alpha  occ. eigenvalues --  -10.39168 -10.35288 -10.35045 -10.35039 -10.32026
 Alpha  occ. eigenvalues --  -10.30850 -10.29760 -10.29119 -10.28982 -10.27714
 Alpha  occ. eigenvalues --  -10.27648 -10.27587 -10.26999 -10.26867 -10.24713
 Alpha  occ. eigenvalues --  -10.24351  -1.20024  -1.18144  -1.16661  -1.15781
 Alpha  occ. eigenvalues --   -1.12345  -1.11758  -1.06422  -1.05164  -1.04577
 Alpha  occ. eigenvalues --   -1.03938  -1.03480  -0.93827  -0.92000  -0.90857
 Alpha  occ. eigenvalues --   -0.89324  -0.86886  -0.83211  -0.82231  -0.81234
 Alpha  occ. eigenvalues --   -0.79970  -0.78474  -0.77589  -0.75495  -0.73588
 Alpha  occ. eigenvalues --   -0.73304  -0.72646  -0.71825  -0.71544  -0.70956
 Alpha  occ. eigenvalues --   -0.69733  -0.69166  -0.68404  -0.67761  -0.66336
 Alpha  occ. eigenvalues --   -0.65105  -0.64696  -0.64518  -0.64002  -0.61842
 Alpha  occ. eigenvalues --   -0.60402  -0.60132  -0.59610  -0.58755  -0.57519
 Alpha  occ. eigenvalues --   -0.57298  -0.56558  -0.56178  -0.55415  -0.54694
 Alpha  occ. eigenvalues --   -0.54637  -0.54361  -0.53797  -0.53255  -0.52594
 Alpha  occ. eigenvalues --   -0.52364  -0.51932  -0.51369  -0.50876  -0.49609
 Alpha  occ. eigenvalues --   -0.49476  -0.49191  -0.48680  -0.48501  -0.47731
 Alpha  occ. eigenvalues --   -0.46974  -0.45968  -0.45780  -0.45200  -0.44666
 Alpha  occ. eigenvalues --   -0.44579  -0.44122  -0.43823  -0.42420  -0.42266
 Alpha  occ. eigenvalues --   -0.41871  -0.41655  -0.41078  -0.40370  -0.39582
 Alpha  occ. eigenvalues --   -0.39445  -0.37807  -0.37302  -0.36099  -0.33321
 Alpha  occ. eigenvalues --   -0.27318  -0.25288
 Alpha virt. eigenvalues --   -0.12868  -0.12239  -0.11502  -0.09113  -0.08656
 Alpha virt. eigenvalues --   -0.07702  -0.06977  -0.05872  -0.03511  -0.03290
 Alpha virt. eigenvalues --   -0.02617  -0.02123  -0.01539  -0.01159  -0.00095

 Mulliken charges:
               1
     1  N   -0.763655
     2  C   -0.120562
     3  C    0.644801
     4  O   -0.524604
     5  C   -0.403553
     6  C    0.155152
     7  C   -0.241919
     8  C   -0.200979
     9  C   -0.228265
    10  C   -0.332888
    11  C    0.441535
    12  O   -0.620742
    13  H    0.425841
    14  H    0.218900
    15  H    0.173854
    16  H    0.182207
    17  H    0.126506
    18  H    0.108074
    19  H    0.136448
    20  H    0.151505
    21  H    0.403121
    22  H    0.454966
    23  N   -0.637422
    24  C   -0.025327
    25  C    0.643859
    26  O   -0.576688
    27  C   -0.120283
    28  C   -0.480204
    29  C   -0.449158
    30  H    0.354031
    31  H    0.211888
    32  H    0.158333
    33  H    0.157315
    34  H    0.178127
    35  H    0.148466
    36  H    0.159190
    37  H    0.159158
    38  H    0.166383
    39  N   -0.607997
    40  C   -0.092558
    41  C    0.621833
    42  O   -0.423008
    43  C   -0.312281
    44  C   -0.301702
    45  C   -0.159656
    46  N   -0.608697
    47  C    0.792954
    48  N   -0.759306
    49  N   -0.780280
    50  O   -0.651454
    51  H    0.427641
    52  H    0.380973
    53  H    0.367183
    54  H    0.178834
    55  H    0.217625
    56  H    0.155888
    57  H    0.170011
    58  H    0.217967
    59  H    0.189902
    60  H    0.168376
    61  H    0.390924
    62  H    0.386499
    63  H    0.369435
    64  H    0.427483
 Sum of Mulliken charges =   1.00000

 Dipole moment (field-independent basis, Debye):
    X=            154.7599    Y=           -141.6866    Z=            206.0320  Tot=            294.0661
 Quadrupole moment (field-independent basis, Debye-Ang):
   XX=           4825.1935   YY=           4028.6685   ZZ=           8722.6538
   XY=          -4574.3633   XZ=           6698.3561   YZ=          -6129.5896

 Normal termination of Gaussian 16 at Tue May 31 11:50:56 2022.
