 Gaussian 16, Revision C.01,
 Gaussian 16:  ES64L-G16RevC.01  3-Jul-2019

 ----------------------------------------------------------------------
 # B3LYP/6-31G* empiricaldispersion=gd3 guess=read geom=check nosymm in
 tegral(ultrafinegrid)
 ----------------------------------------------------------------------

 -----------------------------------------------------
 Candidate Structure: Conf:34 Charge calc in gas phase
 -----------------------------------------------------
 Structure from the checkpoint file:  "conf-34.chk"
 Charge =  1 Multiplicity = 1

                          Input orientation:
 ---------------------------------------------------------------------
 Center     Atomic      Atomic             Coordinates (Angstroms)
 Number     Number       Type             X           Y           Z
 ---------------------------------------------------------------------
      1          7           0       -0.045076  -91.992040  125.511514
      2          6           0       -1.189692  -91.552976  126.317510
      3          6           0       -0.991524  -90.107350  126.806265
      4          8           0       -0.210701  -89.336435  126.251838
      5          6           0       -2.501594  -91.642483  125.504401
      6          6           0       -2.884912  -93.077675  125.070631
      7          6           0       -2.427164  -93.491289  123.664067
      8          8           0       -1.117005  -93.379623  123.406078
      9          8           0       -3.208778  -93.902889  122.837424
     10          1           0        0.309929  -91.175802  125.007305
     11          1           0       -1.278872  -92.220304  127.184296
     12          1           0       -2.417381  -90.984468  124.629908
     13          1           0       -3.310703  -91.231809  126.119824
     14          1           0       -3.970978  -93.187784  125.070184
     15          1           0       -2.485952  -93.803032  125.793759
     16          1           0        0.718378  -92.302846  126.109580
     17          1           0       -0.631215  -93.014376  124.198446
     18          7           0       -1.768097  -89.712748  127.852809
     19          6           0       -1.756460  -88.337497  128.297274
     20          6           0       -3.057397  -88.071535  129.055974
     21          8           0       -3.702848  -88.968154  129.583795
     22          6           0       -0.512420  -88.033912  129.192886
     23          6           0       -0.398595  -86.575138  129.558527
     24          6           0       -0.728677  -86.111796  130.838828
     25          6           0       -0.044856  -85.625440  128.588901
     26          6           0       -0.721329  -84.748564  131.145799
     27          6           0       -0.034384  -84.259643  128.874272
     28          6           0       -0.368550  -83.812868  130.159216
     29          8           0       -0.392635  -82.499603  130.515856
     30          1           0       -2.419156  -90.339256  128.311126
     31          1           0       -1.689881  -87.695842  127.410427
     32          1           0       -0.568330  -88.662910  130.087842
     33          1           0        0.354519  -88.356062  128.608284
     34          1           0       -0.994403  -86.827358  131.613221
     35          1           0        0.229093  -85.960504  127.590977
     36          1           0       -0.935944  -84.393086  132.149464
     37          1           0        0.247653  -83.543964  128.105329
     38          1           0       -0.043736  -81.954349  129.792532
     39          7           0       -3.403562  -86.748095  129.150659
     40          6           0       -4.594854  -86.293363  129.852555
     41          6           0       -4.668401  -84.783138  129.861762
     42          8           0       -5.743753  -84.201165  129.785742
     43          6           0       -4.625823  -86.752416  131.350935
     44          6           0       -5.669886  -86.014786  132.220205
     45          6           0       -5.102883  -84.790576  132.995755
     46          6           0       -6.052731  -83.590716  133.121958
     47          7           0       -5.880172  -82.620246  131.961927
     48          8           0       -3.565734  -84.075967  130.124195
     49          1           0       -2.758507  -84.623493  130.280619
     50          1           0       -2.925684  -86.102173  128.535397
     51          1           0       -5.506659  -86.649267  129.361908
     52          1           0       -4.822593  -87.824166  131.331316
     53          1           0       -3.617891  -86.626318  131.764466
     54          1           0       -6.079005  -86.719927  132.949387
     55          1           0       -6.517102  -85.713329  131.593098
     56          1           0       -4.841550  -85.102960  134.011878
     57          1           0       -4.159424  -84.444026  132.555077
     58          1           0       -7.102178  -83.894992  133.115931
     59          1           0       -5.865803  -83.010990  134.028676
     60          1           0       -6.586401  -81.877333  131.977619
     61          1           0       -5.923488  -83.114944  131.025471
     62          1           0       -4.957492  -82.173484  131.997270
 ---------------------------------------------------------------------

 SCF Done:  E(RB3LYP) =  -1526.27909665     A.U. after    3 cycles

 Alpha  occ. eigenvalues --  -19.35142 -19.30133 -19.29271 -19.24243 -19.20787
 Alpha  occ. eigenvalues --  -19.19821 -19.14965 -14.60864 -14.49433 -14.45511
 Alpha  occ. eigenvalues --  -14.41313 -10.48128 -10.41218 -10.40905 -10.38143
 Alpha  occ. eigenvalues --  -10.37515 -10.36983 -10.34810 -10.34437 -10.33927
 Alpha  occ. eigenvalues --  -10.32769 -10.32555 -10.31300 -10.31095 -10.30690
 Alpha  occ. eigenvalues --  -10.30685 -10.30629 -10.30575 -10.29729 -10.26928
 Alpha  occ. eigenvalues --  -10.24987  -1.26296  -1.17824  -1.17430  -1.16323
 Alpha  occ. eigenvalues --   -1.15299  -1.12724  -1.11096  -1.06000  -1.03008
 Alpha  occ. eigenvalues --   -1.02192  -0.98062  -0.97167  -0.95558  -0.91892
 Alpha  occ. eigenvalues --   -0.89533  -0.86640  -0.86246  -0.85608  -0.83540
 Alpha  occ. eigenvalues --   -0.79710  -0.78302  -0.77673  -0.75869  -0.75349
 Alpha  occ. eigenvalues --   -0.74045  -0.73704  -0.72727  -0.71089  -0.70550
 Alpha  occ. eigenvalues --   -0.69621  -0.67938  -0.67645  -0.65950  -0.65413
 Alpha  occ. eigenvalues --   -0.63574  -0.62687  -0.62213  -0.61893  -0.60822
 Alpha  occ. eigenvalues --   -0.60571  -0.59729  -0.58889  -0.58251  -0.57779
 Alpha  occ. eigenvalues --   -0.57421  -0.56533  -0.56076  -0.55668  -0.54824
 Alpha  occ. eigenvalues --   -0.54560  -0.54164  -0.53787  -0.52884  -0.52654
 Alpha  occ. eigenvalues --   -0.52544  -0.52038  -0.51795  -0.50788  -0.50283
 Alpha  occ. eigenvalues --   -0.49956  -0.49052  -0.48841  -0.48275  -0.48193
 Alpha  occ. eigenvalues --   -0.47829  -0.47355  -0.46898  -0.46503  -0.46238
 Alpha  occ. eigenvalues --   -0.45312  -0.44845  -0.44195  -0.43730  -0.43606
 Alpha  occ. eigenvalues --   -0.42276  -0.41250  -0.39617  -0.38939  -0.37863
 Alpha  occ. eigenvalues --   -0.37226  -0.35297  -0.34972  -0.33560  -0.33106
 Alpha  occ. eigenvalues --   -0.32791  -0.28595
 Alpha virt. eigenvalues --   -0.16177  -0.12712  -0.11780  -0.11177  -0.10287
 Alpha virt. eigenvalues --   -0.06877  -0.06664  -0.05685  -0.04372  -0.03710
 Alpha virt. eigenvalues --   -0.03547  -0.03122  -0.02027  -0.01559  -0.01220

 Mulliken charges:
               1
     1  N   -0.757796
     2  C   -0.070794
     3  C    0.609016
     4  O   -0.529900
     5  C   -0.281490
     6  C   -0.375006
     7  C    0.579287
     8  O   -0.597488
     9  O   -0.452585
    10  H    0.348901
    11  H    0.154367
    12  H    0.173823
    13  H    0.145930
    14  H    0.180886
    15  H    0.161283
    16  H    0.331405
    17  H    0.455392
    18  N   -0.616234
    19  C   -0.039244
    20  C    0.624192
    21  O   -0.512745
    22  C   -0.356254
    23  C    0.155114
    24  C   -0.183995
    25  C   -0.209947
    26  C   -0.252708
    27  C   -0.192548
    28  C    0.364307
    29  O   -0.633891
    30  H    0.355371
    31  H    0.179240
    32  H    0.165172
    33  H    0.206357
    34  H    0.152059
    35  H    0.178002
    36  H    0.155692
    37  H    0.155640
    38  H    0.424364
    39  N   -0.657562
    40  C   -0.001807
    41  C    0.603800
    42  O   -0.501618
    43  C   -0.308864
    44  C   -0.307494
    45  C   -0.309990
    46  C   -0.196657
    47  N   -0.763305
    48  O   -0.588011
    49  H    0.450271
    50  H    0.346630
    51  H    0.212801
    52  H    0.230865
    53  H    0.156013
    54  H    0.188519
    55  H    0.173897
    56  H    0.202551
    57  H    0.158472
    58  H    0.224923
    59  H    0.216850
    60  H    0.414485
    61  H    0.449984
    62  H    0.412070
 Sum of Mulliken charges =   1.00000

 Dipole moment (field-independent basis, Debye):
    X=            -19.6521    Y=           -398.8679    Z=            637.7083  Tot=            752.4319
 Quadrupole moment (field-independent basis, Debye-Ang):
   XX=            -64.4700   YY=          32913.9225   ZZ=          84412.7691
   XY=           1611.8089   XZ=          -2628.3389   YZ=         -53031.4844

 Normal termination of Gaussian 16 at Tue May 24 19:10:12 2022.
