 Gaussian 16, Revision C.01,
 Gaussian 16:  ES64L-G16RevC.01  3-Jul-2019

 ----------------------------------------------------------------------
 # B3LYP/6-31G* empiricaldispersion=gd3 guess=read geom=check nosymm in
 tegral(ultrafinegrid)
 ----------------------------------------------------------------------

 ------------------------------------------------------
 Candidate Structure: Conf:472 Charge calc in gas phase
 ------------------------------------------------------
 Structure from the checkpoint file:  "conf-472.chk"
 Charge =  1 Multiplicity = 1

                          Input orientation:
 ---------------------------------------------------------------------
 Center     Atomic      Atomic             Coordinates (Angstroms)
 Number     Number       Type             X           Y           Z
 ---------------------------------------------------------------------
      1          7           0       -5.510039  -86.607268  129.961456
      2          6           0       -5.317063  -87.202420  128.584216
      3          6           0       -4.512103  -88.501634  128.499125
      4          8           0       -4.159686  -88.845801  127.377749
      5          6           0       -6.591583  -87.071397  127.751799
      6          6           0       -7.112133  -85.602258  127.695268
      7          6           0       -5.950862  -84.597166  127.656497
      8          8           0       -5.384358  -84.332802  128.786497
      9          8           0       -5.570582  -84.164007  126.548556
     10          1           0       -5.643211  -85.539155  129.727696
     11          1           0       -4.582108  -86.528644  128.148978
     12          1           0       -7.380417  -87.736440  128.122358
     13          1           0       -6.322550  -87.417982  126.750521
     14          1           0       -7.730194  -85.384764  128.573458
     15          1           0       -7.735033  -85.477275  126.807894
     16          1           0       -6.300848  -86.997072  130.480637
     17          1           0       -4.650634  -86.668830  130.518014
     18          7           0       -4.025369  -89.062814  129.645056
     19          6           0       -2.615342  -89.527020  129.667081
     20          6           0       -1.797810  -88.210026  129.721259
     21          8           0       -1.526119  -87.652521  130.777119
     22          6           0       -2.328992  -90.432705  130.865687
     23          6           0       -0.930552  -91.008539  130.787371
     24          6           0       -0.684822  -92.175560  130.048249
     25          6           0        0.152411  -90.372749  131.404857
     26          6           0        0.597118  -92.699700  129.929429
     27          6           0        1.443485  -90.888195  131.296537
     28          6           0        1.670395  -92.055429  130.558257
     29          8           0        2.903563  -92.615650  130.410066
     30          1           0       -4.352709  -88.729681  130.542889
     31          1           0       -2.444280  -90.069178  128.735799
     32          1           0       -2.450267  -89.847316  131.784461
     33          1           0       -3.078815  -91.231915  130.871732
     34          1           0       -1.513301  -92.691202  129.566503
     35          1           0       -0.014393  -89.459649  131.968552
     36          1           0        0.788208  -93.608208  129.367804
     37          1           0        2.273533  -90.386455  131.789957
     38          1           0        3.555858  -92.109428  130.919119
     39          7           0       -1.551673  -87.646803  128.502309
     40          6           0       -0.933191  -86.343958  128.342360
     41          6           0       -1.833575  -85.149526  128.695496
     42          8           0       -1.525516  -84.003243  128.409994
     43          6           0       -0.395804  -86.164964  126.900306
     44          6           0       -1.418640  -86.354220  125.756411
     45          6           0       -2.660440  -85.442327  125.766527
     46          6           0       -2.359297  -83.958121  125.472119
     47          7           0       -3.169784  -83.049210  126.363063
     48          8           0       -3.003183  -85.450987  129.270371
     49          1           0       -3.622427  -84.673419  129.209897
     50          1           0       -1.884628  -88.128707  127.677785
     51          1           0       -0.088311  -86.278320  129.038831
     52          1           0        0.061570  -85.173157  126.849784
     53          1           0        0.411918  -86.890981  126.760108
     54          1           0       -1.776183  -87.391539  125.736729
     55          1           0       -0.880131  -86.223295  124.809380
     56          1           0       -3.382680  -85.810908  125.032049
     57          1           0       -3.176667  -85.530297  126.725928
     58          1           0       -1.310749  -83.711103  125.648649
     59          1           0       -2.604426  -83.703436  124.439207
     60          1           0       -3.172388  -82.083880  126.024289
     61          1           0       -2.744344  -83.062577  127.304807
     62          1           0       -4.189172  -83.399842  126.461002
 ---------------------------------------------------------------------

 SCF Done:  E(RB3LYP) =  -1526.30629099     A.U. after    2 cycles

 Alpha  occ. eigenvalues --  -19.32539 -19.27357 -19.25092 -19.24820 -19.24369
 Alpha  occ. eigenvalues --  -19.24056 -19.22833 -14.57555 -14.54585 -14.49485
 Alpha  occ. eigenvalues --  -14.47641 -10.45474 -10.42938 -10.41844 -10.39893
 Alpha  occ. eigenvalues --  -10.38754 -10.36754 -10.36187 -10.34624 -10.33124
 Alpha  occ. eigenvalues --  -10.31854 -10.31826 -10.31211 -10.31116 -10.31020
 Alpha  occ. eigenvalues --  -10.28571 -10.26581 -10.26255 -10.26112 -10.25819
 Alpha  occ. eigenvalues --  -10.25321  -1.23852  -1.17662  -1.17288  -1.14900
 Alpha  occ. eigenvalues --   -1.14650  -1.12681  -1.12502  -1.09921  -1.08169
 Alpha  occ. eigenvalues --   -1.05525  -1.04260  -0.93414  -0.92981  -0.92733
 Alpha  occ. eigenvalues --   -0.89386  -0.87856  -0.85187  -0.83479  -0.81715
 Alpha  occ. eigenvalues --   -0.80948  -0.78373  -0.76618  -0.75738  -0.74551
 Alpha  occ. eigenvalues --   -0.72686  -0.71676  -0.71136  -0.70171  -0.70029
 Alpha  occ. eigenvalues --   -0.69395  -0.69112  -0.67323  -0.66026  -0.65715
 Alpha  occ. eigenvalues --   -0.64967  -0.63890  -0.62437  -0.61826  -0.61451
 Alpha  occ. eigenvalues --   -0.61138  -0.60387  -0.60046  -0.59109  -0.57923
 Alpha  occ. eigenvalues --   -0.57309  -0.56847  -0.55807  -0.55551  -0.55394
 Alpha  occ. eigenvalues --   -0.54906  -0.54215  -0.54140  -0.53726  -0.53052
 Alpha  occ. eigenvalues --   -0.52346  -0.52281  -0.51509  -0.51167  -0.51060
 Alpha  occ. eigenvalues --   -0.50171  -0.49403  -0.49041  -0.48790  -0.48480
 Alpha  occ. eigenvalues --   -0.48068  -0.47437  -0.47077  -0.46893  -0.46249
 Alpha  occ. eigenvalues --   -0.45667  -0.45064  -0.44615  -0.44388  -0.43065
 Alpha  occ. eigenvalues --   -0.42011  -0.40556  -0.40222  -0.39901  -0.39771
 Alpha  occ. eigenvalues --   -0.39620  -0.38664  -0.37865  -0.36900  -0.35618
 Alpha  occ. eigenvalues --   -0.32145  -0.28770
 Alpha virt. eigenvalues --   -0.13433  -0.12993  -0.09970  -0.09470  -0.08506
 Alpha virt. eigenvalues --   -0.07115  -0.06227  -0.06122  -0.05076  -0.03718
 Alpha virt. eigenvalues --   -0.02602  -0.01529  -0.01212  -0.00435   0.00149

 Mulliken charges:
               1
     1  N   -0.789209
     2  C   -0.140007
     3  C    0.628413
     4  O   -0.502467
     5  C   -0.284566
     6  C   -0.362970
     7  C    0.610241
     8  O   -0.631012
     9  O   -0.547227
    10  H    0.439436
    11  H    0.252148
    12  H    0.177144
    13  H    0.216712
    14  H    0.165998
    15  H    0.204686
    16  H    0.396445
    17  H    0.405166
    18  N   -0.600930
    19  C   -0.069449
    20  C    0.629831
    21  O   -0.524760
    22  C   -0.369352
    23  C    0.140037
    24  C   -0.190426
    25  C   -0.188111
    26  C   -0.156436
    27  C   -0.195956
    28  C    0.354975
    29  O   -0.631909
    30  H    0.320102
    31  H    0.197706
    32  H    0.163826
    33  H    0.169232
    34  H    0.132398
    35  H    0.155238
    36  H    0.155375
    37  H    0.131958
    38  H    0.414354
    39  N   -0.627019
    40  C   -0.041660
    41  C    0.636397
    42  O   -0.498646
    43  C   -0.310699
    44  C   -0.307635
    45  C   -0.305359
    46  C   -0.171094
    47  N   -0.796988
    48  O   -0.611409
    49  H    0.439851
    50  H    0.367550
    51  H    0.226872
    52  H    0.182517
    53  H    0.184921
    54  H    0.169847
    55  H    0.174729
    56  H    0.192734
    57  H    0.152257
    58  H    0.205618
    59  H    0.206903
    60  H    0.393825
    61  H    0.417796
    62  H    0.442056
 Sum of Mulliken charges =   1.00000

 Dipole moment (field-independent basis, Debye):
    X=            -17.2435    Y=           -412.8275    Z=            615.7514  Tot=            741.5346
 Quadrupole moment (field-independent basis, Debye-Ang):
   XX=            -72.0463   YY=          35326.0208   ZZ=          78783.4954
   XY=           1484.7119   XZ=          -2223.2955   YZ=         -52949.6892

 Normal termination of Gaussian 16 at Tue May 24 19:13:31 2022.
