 Gaussian 16, Revision C.01,
 Gaussian 16:  ES64L-G16RevC.01  3-Jul-2019

 ----------------------------------------------------------------------
 # B3LYP/6-31G* empiricaldispersion=gd3 guess=read geom=check nosymm in
 tegral(ultrafinegrid)
 ----------------------------------------------------------------------

 ------------------------------------------------------
 Candidate Structure: Conf:123 Charge calc in gas phase
 ------------------------------------------------------
 Structure from the checkpoint file:  "conf-123.chk"
 Charge =  1 Multiplicity = 1

                          Input orientation:
 ---------------------------------------------------------------------
 Center     Atomic      Atomic             Coordinates (Angstroms)
 Number     Number       Type             X           Y           Z
 ---------------------------------------------------------------------
      1          7           0       -4.871015  -90.100115  129.747193
      2          6           0       -3.734894  -90.160801  128.810243
      3          6           0       -2.341897  -89.677831  129.243087
      4          8           0       -1.411023  -89.813485  128.450040
      5          6           0       -3.674672  -91.525454  128.110317
      6          6           0       -5.005401  -91.920877  127.414141
      7          6           0       -5.596389  -90.721540  126.710230
      8          8           0       -6.308876  -89.869353  127.461894
      9          8           0       -5.391949  -90.450768  125.531222
     10          1           0       -6.124230  -90.058506  128.434514
     11          1           0       -3.957852  -89.397803  128.051918
     12          1           0       -3.409067  -92.308175  128.830388
     13          1           0       -2.867089  -91.477695  127.377633
     14          1           0       -5.725922  -92.300086  128.144890
     15          1           0       -4.818019  -92.701197  126.674177
     16          1           0       -4.806095  -90.802180  130.483015
     17          1           0       -4.958365  -89.184632  130.185006
     18          7           0       -2.239738  -88.937876  130.380855
     19          6           0       -1.239783  -87.849667  130.450136
     20          6           0       -1.833493  -86.748665  129.542369
     21          8           0       -2.572991  -85.867154  129.971795
     22          6           0       -1.017416  -87.365632  131.884697
     23          6           0        0.129546  -86.379745  131.960313
     24          6           0       -0.087649  -85.001323  131.855570
     25          6           0        1.449213  -86.837321  132.092944
     26          6           0        0.978042  -84.102718  131.888537
     27          6           0        2.521791  -85.953621  132.125232
     28          6           0        2.287930  -84.576335  132.024188
     29          8           0        3.376235  -83.756678  132.064563
     30          1           0       -3.074078  -88.783912  130.932210
     31          1           0       -0.309838  -88.241989  130.034904
     32          1           0       -1.943203  -86.905410  132.248578
     33          1           0       -0.811793  -88.245229  132.505420
     34          1           0       -1.099985  -84.627187  131.736276
     35          1           0        1.641278  -87.904686  132.183420
     36          1           0        0.791184  -83.033345  131.812570
     37          1           0        3.542315  -86.304729  132.237506
     38          1           0        3.089060  -82.831421  132.017295
     39          7           0       -1.627530  -86.935516  128.208353
     40          6           0       -2.350100  -86.169859  127.206488
     41          6           0       -3.740509  -85.752890  127.682382
     42          8           0       -4.221602  -84.657316  127.584996
     43          6           0       -2.503930  -87.009327  125.917712
     44          6           0       -3.135869  -86.216982  124.749136
     45          6           0       -4.043212  -87.050372  123.817413
     46          6           0       -5.531094  -87.020266  124.172957
     47          7           0       -5.852200  -87.761704  125.449379
     48          8           0       -4.522518  -86.850657  128.051699
     49          1           0       -5.312645  -86.458419  128.471881
     50          1           0       -1.120334  -87.763121  127.912944
     51          1           0       -1.833570  -85.229188  126.985935
     52          1           0       -1.514244  -87.374701  125.621092
     53          1           0       -3.084109  -87.908436  126.163626
     54          1           0       -2.329670  -85.775264  124.155835
     55          1           0       -3.709125  -85.362735  125.132808
     56          1           0       -3.984332  -86.648321  122.799857
     57          1           0       -3.696213  -88.089822  123.751042
     58          1           0       -5.882899  -85.992668  124.300750
     59          1           0       -6.130140  -87.499190  123.394388
     60          1           0       -5.330582  -87.417610  126.272000
     61          1           0       -5.658513  -88.801414  125.369719
     62          1           0       -6.846491  -87.688409  125.685536
 ---------------------------------------------------------------------

 SCF Done:  E(RB3LYP) =  -1526.30148887     A.U. after    1 cycles

 Alpha  occ. eigenvalues --  -19.33014 -19.31740 -19.27957 -19.26470 -19.23840
 Alpha  occ. eigenvalues --  -19.23504 -19.22816 -14.57379 -14.48402 -14.48158
 Alpha  occ. eigenvalues --  -14.47123 -10.45663 -10.44610 -10.40835 -10.39543
 Alpha  occ. eigenvalues --  -10.38324 -10.36083 -10.36051 -10.33803 -10.32680
 Alpha  occ. eigenvalues --  -10.32413 -10.32340 -10.31940 -10.31460 -10.31254
 Alpha  occ. eigenvalues --  -10.27933 -10.25976 -10.25675 -10.25509 -10.25245
 Alpha  occ. eigenvalues --  -10.24759  -1.23329  -1.22863  -1.15852  -1.14893
 Alpha  occ. eigenvalues --   -1.14509  -1.14280  -1.12345  -1.11961  -1.05104
 Alpha  occ. eigenvalues --   -1.04062  -1.03278  -0.93975  -0.92200  -0.91991
 Alpha  occ. eigenvalues --   -0.90194  -0.87642  -0.84229  -0.83979  -0.81136
 Alpha  occ. eigenvalues --   -0.80464  -0.78051  -0.75986  -0.75395  -0.73300
 Alpha  occ. eigenvalues --   -0.73092  -0.72082  -0.71381  -0.70599  -0.69945
 Alpha  occ. eigenvalues --   -0.68843  -0.68448  -0.66114  -0.65488  -0.64852
 Alpha  occ. eigenvalues --   -0.64244  -0.63340  -0.62513  -0.61378  -0.60970
 Alpha  occ. eigenvalues --   -0.60550  -0.60085  -0.59502  -0.59121  -0.58487
 Alpha  occ. eigenvalues --   -0.58083  -0.56916  -0.56215  -0.55613  -0.55492
 Alpha  occ. eigenvalues --   -0.55184  -0.54454  -0.53577  -0.53308  -0.53134
 Alpha  occ. eigenvalues --   -0.52481  -0.51923  -0.51377  -0.51021  -0.50472
 Alpha  occ. eigenvalues --   -0.50191  -0.48938  -0.48592  -0.48320  -0.47744
 Alpha  occ. eigenvalues --   -0.47490  -0.47352  -0.46917  -0.46677  -0.46476
 Alpha  occ. eigenvalues --   -0.46198  -0.46105  -0.44943  -0.44746  -0.43858
 Alpha  occ. eigenvalues --   -0.42752  -0.42424  -0.41477  -0.40053  -0.39853
 Alpha  occ. eigenvalues --   -0.39261  -0.39085  -0.36819  -0.36396  -0.35305
 Alpha  occ. eigenvalues --   -0.31561  -0.28196
 Alpha virt. eigenvalues --   -0.13300  -0.12033  -0.11452  -0.09732  -0.07825
 Alpha virt. eigenvalues --   -0.07384  -0.06553  -0.05514  -0.04960  -0.03125
 Alpha virt. eigenvalues --   -0.02490  -0.01778  -0.01703  -0.00475   0.00643

 Mulliken charges:
               1
     1  N   -0.789534
     2  C   -0.107108
     3  C    0.629141
     4  O   -0.529138
     5  C   -0.280554
     6  C   -0.358487
     7  C    0.608426
     8  O   -0.613867
     9  O   -0.495249
    10  H    0.459809
    11  H    0.190913
    12  H    0.179281
    13  H    0.211674
    14  H    0.183863
    15  H    0.211226
    16  H    0.347416
    17  H    0.333742
    18  N   -0.596584
    19  C   -0.064865
    20  C    0.636690
    21  O   -0.525787
    22  C   -0.370873
    23  C    0.141181
    24  C   -0.187388
    25  C   -0.189242
    26  C   -0.195302
    27  C   -0.156144
    28  C    0.354756
    29  O   -0.632936
    30  H    0.320856
    31  H    0.199302
    32  H    0.163055
    33  H    0.166098
    34  H    0.155253
    35  H    0.130703
    36  H    0.130911
    37  H    0.153768
    38  H    0.413636
    39  N   -0.638317
    40  C    0.036826
    41  C    0.583153
    42  O   -0.422934
    43  C   -0.344207
    44  C   -0.306979
    45  C   -0.293231
    46  C   -0.193707
    47  N   -0.798898
    48  O   -0.615246
    49  H    0.422334
    50  H    0.374122
    51  H    0.205035
    52  H    0.192254
    53  H    0.148261
    54  H    0.189002
    55  H    0.175063
    56  H    0.195696
    57  H    0.182314
    58  H    0.208628
    59  H    0.213100
    60  H    0.416923
    61  H    0.442002
    62  H    0.400163
 Sum of Mulliken charges =   1.00000

 Dipole moment (field-independent basis, Debye):
    X=            -22.9040    Y=           -424.4032    Z=            611.0904  Tot=            744.3616
 Quadrupole moment (field-independent basis, Debye-Ang):
   XX=            -53.1990   YY=          37346.5497   ZZ=          77606.9800
   XY=           2037.0927   XZ=          -2905.8051   YZ=         -54010.4208

 Normal termination of Gaussian 16 at Tue May 24 19:09:51 2022.
