 Gaussian 16, Revision C.01,
 Gaussian 16:  ES64L-G16RevC.01  3-Jul-2019

 ----------------------------------------------------------------------
 # B3LYP/6-31G* empiricaldispersion=gd3 guess=read geom=check nosymm in
 tegral(ultrafinegrid)
 ----------------------------------------------------------------------

 ------------------------------------------------------
 Candidate Structure: Conf:304 Charge calc in gas phase
 ------------------------------------------------------
 Structure from the checkpoint file:  "conf-304.chk"
 Charge =  1 Multiplicity = 1

                          Input orientation:
 ---------------------------------------------------------------------
 Center     Atomic      Atomic             Coordinates (Angstroms)
 Number     Number       Type             X           Y           Z
 ---------------------------------------------------------------------
      1          7           0        0.694811  -88.567844  128.223494
      2          6           0       -0.036056  -88.316765  129.468690
      3          6           0       -1.529400  -88.659913  129.566878
      4          8           0       -2.182877  -88.117461  130.462894
      5          6           0        0.737307  -88.841279  130.690669
      6          6           0        2.191305  -88.303936  130.762301
      7          6           0        2.192613  -86.817847  130.475859
      8          8           0        2.187360  -86.444885  129.192709
      9          8           0        2.096151  -85.963221  131.350266
     10          1           0        0.912468  -89.549729  128.066662
     11          1           0       -0.086200  -87.226299  129.551660
     12          1           0        0.765241  -89.937375  130.679831
     13          1           0        0.183026  -88.538426  131.583044
     14          1           0        2.828258  -88.820640  130.038837
     15          1           0        2.595812  -88.466624  131.763145
     16          1           0        0.221264  -88.180098  127.407345
     17          1           0        1.981208  -87.231912  128.611074
     18          7           0       -2.103287  -89.436680  128.610896
     19          6           0       -3.553257  -89.314271  128.336987
     20          6           0       -3.609922  -88.021985  127.502595
     21          8           0       -3.505502  -88.050234  126.267672
     22          6           0       -4.117734  -90.527656  127.596656
     23          6           0       -5.619905  -90.414317  127.442424
     24          6           0       -6.193811  -89.881920  126.282750
     25          6           0       -6.470780  -90.802819  128.488503
     26          6           0       -7.576410  -89.745705  126.163425
     27          6           0       -7.850409  -90.670712  128.385293
     28          6           0       -8.410625  -90.140613  127.215572
     29          8           0       -9.767943  -90.037485  127.169818
     30          1           0       -1.528453  -89.737456  127.832409
     31          1           0       -4.051536  -89.189493  129.299555
     32          1           0       -3.634346  -90.604554  126.616591
     33          1           0       -3.851271  -91.421045  128.172654
     34          1           0       -5.552994  -89.563715  125.465721
     35          1           0       -6.047180  -91.228352  129.396213
     36          1           0       -8.007001  -89.337621  125.251245
     37          1           0       -8.511194  -90.980451  129.188223
     38          1           0      -10.041657  -89.695764  126.304219
     39          7           0       -3.533093  -86.863122  128.210997
     40          6           0       -3.080627  -85.610711  127.576890
     41          6           0       -1.567329  -85.796327  127.279865
     42          8           0       -0.647635  -85.299877  127.907348
     43          6           0       -3.503919  -84.361519  128.387611
     44          6           0       -2.539656  -83.750731  129.423193
     45          6           0       -2.053165  -84.693969  130.537578
     46          6           0       -0.787079  -84.202420  131.239591
     47          7           0        0.391678  -84.122173  130.275055
     48          8           0       -1.288220  -86.662174  126.302785
     49          1           0       -2.123005  -87.092180  125.963301
     50          1           0       -3.454847  -86.944265  129.220954
     51          1           0       -3.591874  -85.571664  126.610197
     52          1           0       -3.737667  -83.572508  127.664964
     53          1           0       -4.456905  -84.618380  128.865809
     54          1           0       -3.055138  -82.896808  129.879712
     55          1           0       -1.687307  -83.331971  128.880462
     56          1           0       -2.826320  -84.810999  131.306105
     57          1           0       -1.855955  -85.701394  130.162218
     58          1           0       -0.918472  -83.209874  131.676713
     59          1           0       -0.482927  -84.891205  132.030195
     60          1           0        1.216934  -84.648142  130.664991
     61          1           0        0.674563  -83.159185  130.083099
     62          1           0        0.154962  -84.562235  129.366785
 ---------------------------------------------------------------------

 SCF Done:  E(RB3LYP) =  -1526.32031565     A.U. after    1 cycles

 Alpha  occ. eigenvalues --  -19.31444 -19.30513 -19.27665 -19.26561 -19.25488
 Alpha  occ. eigenvalues --  -19.24577 -19.24469 -14.55702 -14.49367 -14.49350
 Alpha  occ. eigenvalues --  -14.47053 -10.45747 -10.44453 -10.42031 -10.41558
 Alpha  occ. eigenvalues --  -10.37245 -10.37243 -10.35854 -10.35233 -10.32139
 Alpha  occ. eigenvalues --  -10.32073 -10.31853 -10.31676 -10.31664 -10.31056
 Alpha  occ. eigenvalues --  -10.28931 -10.26866 -10.26525 -10.26432 -10.26066
 Alpha  occ. eigenvalues --  -10.25570  -1.23270  -1.22130  -1.17475  -1.16260
 Alpha  occ. eigenvalues --   -1.14630  -1.13648  -1.12724  -1.10671  -1.06015
 Alpha  occ. eigenvalues --   -1.05347  -1.03065  -0.93367  -0.93044  -0.91566
 Alpha  occ. eigenvalues --   -0.89985  -0.88270  -0.84165  -0.83832  -0.81984
 Alpha  occ. eigenvalues --   -0.81178  -0.77310  -0.75913  -0.75662  -0.74031
 Alpha  occ. eigenvalues --   -0.72354  -0.72194  -0.71483  -0.70821  -0.69910
 Alpha  occ. eigenvalues --   -0.69471  -0.68975  -0.67032  -0.66467  -0.65100
 Alpha  occ. eigenvalues --   -0.64381  -0.63092  -0.62367  -0.62066  -0.61679
 Alpha  occ. eigenvalues --   -0.61332  -0.59835  -0.59006  -0.58757  -0.58310
 Alpha  occ. eigenvalues --   -0.57955  -0.56898  -0.56053  -0.55844  -0.55598
 Alpha  occ. eigenvalues --   -0.54811  -0.54683  -0.54219  -0.53783  -0.53187
 Alpha  occ. eigenvalues --   -0.52782  -0.52398  -0.51607  -0.51240  -0.50685
 Alpha  occ. eigenvalues --   -0.50513  -0.49503  -0.49228  -0.48963  -0.48321
 Alpha  occ. eigenvalues --   -0.47478  -0.47375  -0.47180  -0.46996  -0.46760
 Alpha  occ. eigenvalues --   -0.46000  -0.45583  -0.44730  -0.44380  -0.43581
 Alpha  occ. eigenvalues --   -0.43347  -0.42123  -0.41831  -0.40875  -0.40422
 Alpha  occ. eigenvalues --   -0.40218  -0.40120  -0.38416  -0.37496  -0.36790
 Alpha  occ. eigenvalues --   -0.32409  -0.29022
 Alpha virt. eigenvalues --   -0.14560  -0.12591  -0.11598  -0.09884  -0.07712
 Alpha virt. eigenvalues --   -0.07481  -0.06385  -0.06293  -0.03158  -0.02379
 Alpha virt. eigenvalues --   -0.01372  -0.01109  -0.00354   0.00369   0.00547

 Mulliken charges:
               1
     1  N   -0.798079
     2  C   -0.088974
     3  C    0.615495
     4  O   -0.537660
     5  C   -0.286067
     6  C   -0.353543
     7  C    0.603515
     8  O   -0.582865
     9  O   -0.498169
    10  H    0.335419
    11  H    0.179380
    12  H    0.175613
    13  H    0.200814
    14  H    0.183207
    15  H    0.208729
    16  H    0.356415
    17  H    0.461192
    18  N   -0.597945
    19  C   -0.058606
    20  C    0.628732
    21  O   -0.557360
    22  C   -0.368351
    23  C    0.140208
    24  C   -0.186311
    25  C   -0.190209
    26  C   -0.194318
    27  C   -0.155669
    28  C    0.355436
    29  O   -0.631053
    30  H    0.331238
    31  H    0.203631
    32  H    0.166443
    33  H    0.171732
    34  H    0.150889
    35  H    0.132160
    36  H    0.133103
    37  H    0.156253
    38  H    0.414999
    39  N   -0.605132
    40  C   -0.076407
    41  C    0.629370
    42  O   -0.498564
    43  C   -0.311559
    44  C   -0.267055
    45  C   -0.312360
    46  C   -0.180393
    47  N   -0.815001
    48  O   -0.585320
    49  H    0.463938
    50  H    0.382965
    51  H    0.210523
    52  H    0.182255
    53  H    0.180696
    54  H    0.167682
    55  H    0.142619
    56  H    0.185885
    57  H    0.169624
    58  H    0.200951
    59  H    0.218567
    60  H    0.439212
    61  H    0.398217
    62  H    0.459864
 Sum of Mulliken charges =   1.00000

 Dipole moment (field-independent basis, Debye):
    X=             -6.1672    Y=           -415.0731    Z=            619.4841  Tot=            745.7106
 Quadrupole moment (field-independent basis, Debye-Ang):
   XX=           -134.9657   YY=          35734.3293   ZZ=          79731.6128
   XY=            527.4054   XZ=           -774.1089   YZ=         -53521.1833

 Normal termination of Gaussian 16 at Tue May 24 19:13:16 2022.
