 Gaussian 16, Revision C.01,
 Gaussian 16:  ES64L-G16RevC.01  3-Jul-2019

 ----------------------------------------------------------------------
 # B3LYP/6-31G* empiricaldispersion=gd3 guess=read geom=check nosymm in
 tegral(ultrafinegrid)
 ----------------------------------------------------------------------

 ------------------------------------------------------
 Candidate Structure: Conf:156 Charge calc in gas phase
 ------------------------------------------------------
 Structure from the checkpoint file:  "conf-156.chk"
 Charge =  1 Multiplicity = 1

                          Input orientation:
 ---------------------------------------------------------------------
 Center     Atomic      Atomic             Coordinates (Angstroms)
 Number     Number       Type             X           Y           Z
 ---------------------------------------------------------------------
      1          7           0        0.490463  -88.116614  125.545514
      2          6           0       -0.952446  -88.046210  126.002422
      3          6           0       -1.501888  -86.657524  126.399605
      4          8           0       -2.489916  -86.188679  125.866801
      5          6           0       -1.844782  -88.810443  125.026783
      6          6           0       -1.492605  -90.325529  124.891970
      7          6           0       -0.882251  -90.879306  126.184993
      8          8           0        0.304794  -90.539087  126.440339
      9          8           0       -1.596158  -91.576084  126.981120
     10          1           0        0.709277  -89.174555  125.736195
     11          1           0       -0.927811  -88.592868  126.941827
     12          1           0       -1.834822  -88.325306  124.043700
     13          1           0       -2.856197  -88.698568  125.413544
     14          1           0       -0.757055  -90.474167  124.093834
     15          1           0       -2.394560  -90.876555  124.615794
     16          1           0        0.604932  -87.866998  124.559198
     17          1           0        1.121126  -87.529954  126.099261
     18          7           0       -0.878364  -86.106330  127.502010
     19          6           0       -1.714619  -85.528731  128.583854
     20          6           0       -1.945378  -86.742467  129.515464
     21          8           0       -0.969204  -87.387053  129.900260
     22          6           0       -1.001139  -84.386535  129.321741
     23          6           0       -1.859193  -83.849922  130.446361
     24          6           0       -1.799270  -84.416611  131.728932
     25          6           0       -2.780612  -82.821602  130.219978
     26          6           0       -2.627389  -83.972777  132.754011
     27          6           0       -3.616738  -82.364123  131.237827
     28          6           0       -3.541989  -82.940565  132.511302
     29          8           0       -4.327304  -82.546862  133.554061
     30          1           0       -0.174870  -86.698930  127.938738
     31          1           0       -2.640508  -85.171623  128.128128
     32          1           0       -0.050920  -84.770553  129.711112
     33          1           0       -0.767215  -83.606530  128.589529
     34          1           0       -1.090800  -85.217812  131.925768
     35          1           0       -2.842731  -82.360224  129.236621
     36          1           0       -2.575055  -84.401658  133.749453
     37          1           0       -4.319447  -81.555752  131.045910
     38          1           0       -4.881260  -81.798883  133.281043
     39          7           0       -3.216295  -87.165609  129.770328
     40          6           0       -3.386755  -88.586178  130.088231
     41          6           0       -2.712755  -89.379635  128.963949
     42          8           0       -2.854668  -89.043776  127.800422
     43          6           0       -4.887062  -88.955391  130.172761
     44          6           0       -5.170587  -90.469843  130.020398
     45          6           0       -5.417359  -90.889118  128.547145
     46          6           0       -5.140960  -92.358301  128.231478
     47          7           0       -3.656466  -92.648716  128.213200
     48          8           0       -2.038133  -90.467834  129.340945
     49          1           0       -1.619572  -90.870537  128.508695
     50          1           0       -3.965419  -86.717011  129.258180
     51          1           0       -2.881507  -88.811727  131.029225
     52          1           0       -5.269342  -88.588656  131.129627
     53          1           0       -5.431491  -88.416983  129.385763
     54          1           0       -6.054928  -90.734113  130.609052
     55          1           0       -4.341414  -91.033552  130.468426
     56          1           0       -6.468589  -90.702427  128.300026
     57          1           0       -4.836544  -90.270799  127.856382
     58          1           0       -5.587690  -93.028379  128.971791
     59          1           0       -5.517273  -92.631945  127.242966
     60          1           0       -3.211195  -92.340271  129.086429
     61          1           0       -3.097595  -92.148179  127.457487
     62          1           0       -3.464360  -93.648984  128.102933
 ---------------------------------------------------------------------

 SCF Done:  E(RB3LYP) =  -1526.28774774     A.U. after    2 cycles

 Alpha  occ. eigenvalues --  -19.30037 -19.25075 -19.24279 -19.23423 -19.22828
 Alpha  occ. eigenvalues --  -19.22445 -19.21984 -14.57496 -14.56302 -14.46905
 Alpha  occ. eigenvalues --  -14.46378 -10.43246 -10.40545 -10.40100 -10.39203
 Alpha  occ. eigenvalues --  -10.38385 -10.36467 -10.34861 -10.33477 -10.32268
 Alpha  occ. eigenvalues --  -10.31697 -10.31572 -10.31324 -10.30751 -10.29761
 Alpha  occ. eigenvalues --  -10.27584 -10.26276 -10.26204 -10.25903 -10.25793
 Alpha  occ. eigenvalues --  -10.25172  -1.21585  -1.15576  -1.15385  -1.14421
 Alpha  occ. eigenvalues --   -1.12726  -1.12389  -1.12253  -1.10949  -1.06231
 Alpha  occ. eigenvalues --   -1.03367  -1.02990  -0.93608  -0.92548  -0.91165
 Alpha  occ. eigenvalues --   -0.89313  -0.87344  -0.83554  -0.83328  -0.81595
 Alpha  occ. eigenvalues --   -0.80033  -0.77357  -0.74996  -0.74713  -0.73019
 Alpha  occ. eigenvalues --   -0.71381  -0.71136  -0.70147  -0.69763  -0.69187
 Alpha  occ. eigenvalues --   -0.69094  -0.68177  -0.67613  -0.65744  -0.64372
 Alpha  occ. eigenvalues --   -0.63891  -0.63512  -0.61586  -0.61264  -0.61008
 Alpha  occ. eigenvalues --   -0.59558  -0.58929  -0.58703  -0.57852  -0.57212
 Alpha  occ. eigenvalues --   -0.56517  -0.55877  -0.55724  -0.54970  -0.54469
 Alpha  occ. eigenvalues --   -0.53922  -0.53693  -0.53209  -0.52545  -0.51790
 Alpha  occ. eigenvalues --   -0.51689  -0.51017  -0.50444  -0.50158  -0.49803
 Alpha  occ. eigenvalues --   -0.49553  -0.49070  -0.48881  -0.47845  -0.47217
 Alpha  occ. eigenvalues --   -0.47201  -0.46628  -0.46520  -0.46052  -0.45929
 Alpha  occ. eigenvalues --   -0.45531  -0.44934  -0.44006  -0.42651  -0.42464
 Alpha  occ. eigenvalues --   -0.40446  -0.39679  -0.39384  -0.38250  -0.37567
 Alpha  occ. eigenvalues --   -0.37270  -0.37015  -0.36799  -0.36044  -0.34877
 Alpha  occ. eigenvalues --   -0.32025  -0.28603
 Alpha virt. eigenvalues --   -0.12107  -0.11728  -0.08813  -0.08483  -0.08008
 Alpha virt. eigenvalues --   -0.07283  -0.06835  -0.05919  -0.03483  -0.03379
 Alpha virt. eigenvalues --   -0.02529  -0.01979  -0.00716  -0.00040   0.00334

 Mulliken charges:
               1
     1  N   -0.760463
     2  C   -0.148503
     3  C    0.615062
     4  O   -0.468152
     5  C   -0.279215
     6  C   -0.363656
     7  C    0.637715
     8  O   -0.566815
     9  O   -0.633654
    10  H    0.439858
    11  H    0.234787
    12  H    0.170846
    13  H    0.213885
    14  H    0.165642
    15  H    0.164850
    16  H    0.397346
    17  H    0.399092
    18  N   -0.598830
    19  C   -0.062067
    20  C    0.624932
    21  O   -0.537415
    22  C   -0.356241
    23  C    0.141430
    24  C   -0.191255
    25  C   -0.194714
    26  C   -0.159614
    27  C   -0.191992
    28  C    0.353136
    29  O   -0.633925
    30  H    0.331369
    31  H    0.183124
    32  H    0.166340
    33  H    0.170689
    34  H    0.146952
    35  H    0.135706
    36  H    0.151665
    37  H    0.133092
    38  H    0.414165
    39  N   -0.584579
    40  C   -0.007710
    41  C    0.602275
    42  O   -0.509641
    43  C   -0.306459
    44  C   -0.304663
    45  C   -0.312748
    46  C   -0.191310
    47  N   -0.761051
    48  O   -0.619749
    49  H    0.457303
    50  H    0.345543
    51  H    0.206765
    52  H    0.192931
    53  H    0.160656
    54  H    0.179617
    55  H    0.151532
    56  H    0.190371
    57  H    0.198071
    58  H    0.205401
    59  H    0.210745
    60  H    0.412270
    61  H    0.432816
    62  H    0.406444
 Sum of Mulliken charges =   1.00000

 Dipole moment (field-independent basis, Debye):
    X=            -15.4915    Y=           -430.6982    Z=            612.4700  Tot=            748.9062
 Quadrupole moment (field-independent basis, Debye-Ang):
   XX=            -93.5831   YY=          38508.3097   ZZ=          77938.6267
   XY=           1409.0920   XZ=          -2009.9369   YZ=         -54918.9686

 Normal termination of Gaussian 16 at Tue May 24 19:10:05 2022.
