 Gaussian 16, Revision C.01,
 Gaussian 16:  ES64L-G16RevC.01  3-Jul-2019

 ----------------------------------------------------------------------
 # B3LYP/6-31G* empiricaldispersion=gd3 guess=read geom=check nosymm in
 tegral(ultrafinegrid)
 ----------------------------------------------------------------------

 ------------------------------------------------------
 Candidate Structure: Conf:950 Charge calc in gas phase
 ------------------------------------------------------
 Structure from the checkpoint file:  "conf-950.chk"
 Charge =  1 Multiplicity = 1

                          Input orientation:
 ---------------------------------------------------------------------
 Center     Atomic      Atomic             Coordinates (Angstroms)
 Number     Number       Type             X           Y           Z
 ---------------------------------------------------------------------
      1          7           0       34.539736  -30.597669   39.940630
      2          6           0       33.094971  -30.842518   40.272864
      3          6           0       33.111729  -31.894419   41.397999
      4          8           0       34.032425  -32.706128   41.455011
      5          6           0       32.363546  -29.516904   40.578787
      6          6           0       32.704271  -28.429169   39.583872
      7          6           0       33.683428  -27.476828   39.902969
      8          6           0       32.104344  -28.378143   38.315812
      9          6           0       34.048285  -26.494833   38.982161
     10          6           0       32.459553  -27.402764   37.391145
     11          6           0       33.435547  -26.452558   37.723596
     12          8           0       33.739519  -25.523642   36.777577
     13          1           0       35.159350  -30.256953   40.829247
     14          1           0       32.645835  -31.307176   39.386318
     15          1           0       31.286400  -29.727956   40.554685
     16          1           0       32.640765  -29.189559   41.583139
     17          1           0       34.156299  -27.512722   40.882038
     18          1           0       31.335838  -29.102426   38.052182
     19          1           0       34.803310  -25.756872   39.245122
     20          1           0       31.990522  -27.350116   36.414190
     21          1           0       34.396442  -24.900516   37.126070
     22          1           0       34.974273  -31.480867   39.661696
     23          1           0       34.608108  -29.909103   39.186059
     24          7           0       32.103836  -31.874347   42.308045
     25          6           0       32.169219  -32.752486   43.480548
     26          6           0       33.494436  -32.510406   44.234463
     27          8           0       34.157431  -33.479661   44.647063
     28          6           0       30.903263  -32.616169   44.361577
     29          6           0       30.703973  -31.210921   44.953072
     30          6           0       30.918125  -33.676910   45.471670
     31          1           0       31.397450  -31.153274   42.268675
     32          1           0       32.246419  -33.785633   43.130893
     33          1           0       30.058261  -32.832278   43.692651
     34          1           0       29.745669  -31.162608   45.478955
     35          1           0       31.491427  -30.970043   45.675558
     36          1           0       30.690726  -30.417279   44.194763
     37          1           0       31.754086  -33.516154   46.161662
     38          1           0       31.014156  -34.687343   45.060908
     39          1           0       29.990312  -33.630757   46.050082
     40          7           0       33.868842  -31.227305   44.400245
     41          6           0       35.264172  -30.749229   44.269875
     42          6           0       35.199884  -29.877645   42.979902
     43          8           0       35.962895  -30.230109   42.026628
     44          6           0       35.728969  -29.955925   45.494841
     45          6           0       35.717678  -30.715135   46.831388
     46          6           0       36.772587  -31.822839   46.978237
     47          7           0       36.446142  -32.978966   46.132081
     48          6           0       37.300955  -33.707086   45.421791
     49          7           0       38.613761  -33.737555   45.722522
     50          7           0       36.847490  -34.404712   44.367122
     51          8           0       34.315216  -28.996937   42.961119
     52          1           0       33.235554  -30.516989   44.041378
     53          1           0       35.898240  -31.609965   44.065847
     54          1           0       35.079952  -29.076697   45.578364
     55          1           0       36.739717  -29.577645   45.290177
     56          1           0       34.720436  -31.138685   47.012034
     57          1           0       35.895473  -30.000181   47.642907
     58          1           0       36.831449  -32.144789   48.024910
     59          1           0       37.756966  -31.437120   46.686442
     60          1           0       35.465178  -33.098343   45.841113
     61          1           0       39.288045  -34.120902   45.076974
     62          1           0       38.955497  -33.381851   46.602100
     63          1           0       37.360348  -35.199686   44.014871
     64          1           0       35.866307  -34.302636   44.106397
 ---------------------------------------------------------------------

 SCF Done:  E(RB3LYP) =  -1486.59129929     A.U. after    2 cycles

 Alpha  occ. eigenvalues --  -19.25176 -19.23907 -19.23277 -19.19221 -19.18547
 Alpha  occ. eigenvalues --  -14.51531 -14.50931 -14.49328 -14.49087 -14.47870
 Alpha  occ. eigenvalues --  -14.46148 -10.46339 -10.40581 -10.40304 -10.36627
 Alpha  occ. eigenvalues --  -10.36087 -10.34709 -10.33997 -10.32825 -10.31873
 Alpha  occ. eigenvalues --  -10.30261 -10.29642 -10.29343 -10.28290 -10.27647
 Alpha  occ. eigenvalues --  -10.27574 -10.27409 -10.26904 -10.26735 -10.26650
 Alpha  occ. eigenvalues --  -10.26364  -1.15925  -1.15131  -1.14447  -1.13372
 Alpha  occ. eigenvalues --   -1.12513  -1.06977  -1.04630  -1.04169  -1.03575
 Alpha  occ. eigenvalues --   -1.03040  -1.02130  -0.93648  -0.91344  -0.90169
 Alpha  occ. eigenvalues --   -0.88259  -0.85155  -0.83030  -0.82654  -0.80605
 Alpha  occ. eigenvalues --   -0.78664  -0.77961  -0.76266  -0.75365  -0.72493
 Alpha  occ. eigenvalues --   -0.71563  -0.70398  -0.70029  -0.68766  -0.68249
 Alpha  occ. eigenvalues --   -0.67918  -0.67135  -0.66852  -0.65083  -0.64193
 Alpha  occ. eigenvalues --   -0.63607  -0.63158  -0.62179  -0.61885  -0.59829
 Alpha  occ. eigenvalues --   -0.59330  -0.58394  -0.57732  -0.57262  -0.56371
 Alpha  occ. eigenvalues --   -0.56064  -0.55031  -0.54899  -0.54370  -0.53944
 Alpha  occ. eigenvalues --   -0.53445  -0.52939  -0.52332  -0.51731  -0.50949
 Alpha  occ. eigenvalues --   -0.50693  -0.50344  -0.49918  -0.49629  -0.49108
 Alpha  occ. eigenvalues --   -0.48741  -0.48429  -0.47975  -0.47806  -0.47219
 Alpha  occ. eigenvalues --   -0.46640  -0.45603  -0.44964  -0.44774  -0.44064
 Alpha  occ. eigenvalues --   -0.43974  -0.43853  -0.43602  -0.43257  -0.41456
 Alpha  occ. eigenvalues --   -0.41423  -0.40895  -0.39293  -0.38749  -0.37753
 Alpha  occ. eigenvalues --   -0.37096  -0.36212  -0.34712  -0.33259  -0.33037
 Alpha  occ. eigenvalues --   -0.32444  -0.29789
 Alpha virt. eigenvalues --   -0.11208  -0.10587  -0.09586  -0.08420  -0.07291
 Alpha virt. eigenvalues --   -0.06303  -0.04520  -0.03619  -0.02758  -0.02345
 Alpha virt. eigenvalues --   -0.00882  -0.00632   0.00034   0.00556   0.00934

 Mulliken charges:
               1
     1  N   -0.766791
     2  C   -0.100201
     3  C    0.656975
     4  O   -0.530001
     5  C   -0.400507
     6  C    0.098341
     7  C   -0.213906
     8  C   -0.191002
     9  C   -0.193711
    10  C   -0.157000
    11  C    0.357409
    12  O   -0.627763
    13  H    0.456944
    14  H    0.203367
    15  H    0.158257
    16  H    0.222724
    17  H    0.187051
    18  H    0.132954
    19  H    0.140902
    20  H    0.161103
    21  H    0.417424
    22  H    0.392181
    23  H    0.389363
    24  N   -0.650382
    25  C   -0.011405
    26  C    0.626449
    27  O   -0.586639
    28  C   -0.124067
    29  C   -0.478399
    30  C   -0.450707
    31  H    0.355230
    32  H    0.196780
    33  H    0.158533
    34  H    0.180303
    35  H    0.163685
    36  H    0.141579
    37  H    0.156534
    38  H    0.163055
    39  H    0.168365
    40  N   -0.582257
    41  C   -0.041252
    42  C    0.581423
    43  O   -0.613511
    44  C   -0.269112
    45  C   -0.308493
    46  C   -0.149218
    47  N   -0.609734
    48  C    0.788766
    49  N   -0.761504
    50  N   -0.776307
    51  O   -0.554241
    52  H    0.355244
    53  H    0.155983
    54  H    0.177836
    55  H    0.157422
    56  H    0.165586
    57  H    0.175678
    58  H    0.184004
    59  H    0.166577
    60  H    0.405220
    61  H    0.378291
    62  H    0.382858
    63  H    0.365409
    64  H    0.422305
 Sum of Mulliken charges =   1.00000

 Dipole moment (field-independent basis, Debye):
    X=            170.0814    Y=           -154.8028    Z=            209.3477  Tot=            310.9952
 Quadrupole moment (field-independent basis, Debye-Ang):
   XX=           5899.9805   YY=           4837.5942   ZZ=           9001.2419
   XY=          -5495.5564   XZ=           7437.8038   YZ=          -6769.7134

 Normal termination of Gaussian 16 at Tue May 31 11:32:00 2022.
