 Gaussian 16, Revision C.01,
 Gaussian 16:  ES64L-G16RevC.01  3-Jul-2019

 ----------------------------------------------------------------------
 # B3LYP/6-31G* empiricaldispersion=gd3 guess=read geom=check nosymm in
 tegral(ultrafinegrid)
 ----------------------------------------------------------------------

 ------------------------------------------------------
 Candidate Structure: Conf:669 Charge calc in gas phase
 ------------------------------------------------------
 Structure from the checkpoint file:  "conf-669.chk"
 Charge =  1 Multiplicity = 1

                          Input orientation:
 ---------------------------------------------------------------------
 Center     Atomic      Atomic             Coordinates (Angstroms)
 Number     Number       Type             X           Y           Z
 ---------------------------------------------------------------------
      1          7           0       31.686947  -31.842880   43.228592
      2          6           0       31.495920  -30.717811   42.258973
      3          6           0       32.578886  -29.689418   42.648826
      4          8           0       32.847646  -29.517654   43.835482
      5          6           0       31.554540  -31.265843   40.817793
      6          6           0       30.632479  -32.448134   40.613293
      7          6           0       31.121398  -33.755681   40.738621
      8          6           0       29.265271  -32.268115   40.352355
      9          6           0       30.273231  -34.854815   40.604772
     10          6           0       28.409796  -33.354409   40.214105
     11          6           0       28.912520  -34.657442   40.339208
     12          8           0       28.025782  -35.677031   40.192682
     13          1           0       32.711194  -32.290888   42.977002
     14          1           0       30.515791  -30.265469   42.449572
     15          1           0       31.277251  -30.451844   40.136045
     16          1           0       32.587307  -31.558350   40.603057
     17          1           0       32.177689  -33.916399   40.944619
     18          1           0       28.864746  -31.262250   40.243228
     19          1           0       30.670268  -35.863196   40.698490
     20          1           0       27.354331  -33.220345   40.001739
     21          1           0       28.482834  -36.529119   40.272747
     22          1           0       31.759452  -31.475765   44.182477
     23          1           0       30.937318  -32.533001   43.156057
     24          7           0       33.230147  -29.035639   41.654395
     25          6           0       34.366006  -28.162900   41.960511
     26          6           0       35.430803  -28.920595   42.777347
     27          8           0       36.081477  -28.302600   43.643644
     28          6           0       34.929598  -27.520287   40.666955
     29          6           0       35.499408  -28.550039   39.677758
     30          6           0       35.975618  -26.449579   41.007200
     31          1           0       32.995609  -29.212799   40.688506
     32          1           0       34.026642  -27.369434   42.633025
     33          1           0       34.073629  -27.018753   40.192664
     34          1           0       34.773328  -29.321751   39.392153
     35          1           0       35.813464  -28.049162   38.756997
     36          1           0       36.373062  -29.059263   40.098910
     37          1           0       35.568109  -25.691615   41.684186
     38          1           0       36.308741  -25.947456   40.093602
     39          1           0       36.852358  -26.891441   41.491923
     40          7           0       35.619555  -30.218230   42.485397
     41          6           0       35.980166  -31.230667   43.491667
     42          6           0       34.760953  -32.184733   43.633447
     43          8           0       34.536971  -32.695865   44.724300
     44          6           0       37.256859  -32.004916   43.133190
     45          6           0       38.543290  -31.169223   43.030695
     46          6           0       39.090194  -30.624998   44.359728
     47          7           0       38.243646  -29.540391   44.875230
     48          6           0       37.884841  -29.347709   46.140447
     49          7           0       38.600666  -29.856341   47.161767
     50          7           0       36.775149  -28.637891   46.402013
     51          8           0       34.051131  -32.306494   42.549503
     52          1           0       34.967695  -30.627505   41.818620
     53          1           0       36.080684  -30.731967   44.454136
     54          1           0       37.089106  -32.505934   42.172004
     55          1           0       37.381599  -32.797483   43.881831
     56          1           0       38.395029  -30.335580   42.330647
     57          1           0       39.333104  -31.792908   42.596371
     58          1           0       40.111062  -30.250903   44.217696
     59          1           0       39.124901  -31.432659   45.100934
     60          1           0       37.646299  -29.042918   44.199924
     61          1           0       38.199578  -29.938549   48.084442
     62          1           0       39.498997  -30.286499   47.003785
     63          1           0       36.641791  -28.199620   47.301562
     64          1           0       36.205094  -28.327767   45.615118
 ---------------------------------------------------------------------

 SCF Done:  E(RB3LYP) =  -1486.59423520     A.U. after    1 cycles

 Alpha  occ. eigenvalues --  -19.25587 -19.23715 -19.23329 -19.19769 -19.17787
 Alpha  occ. eigenvalues --  -14.50864 -14.50795 -14.49254 -14.49086 -14.48037
 Alpha  occ. eigenvalues --  -14.45878 -10.46265 -10.40720 -10.40158 -10.36292
 Alpha  occ. eigenvalues --  -10.36085 -10.34730 -10.34065 -10.33318 -10.31706
 Alpha  occ. eigenvalues --  -10.30450 -10.30296 -10.29738 -10.28492 -10.28312
 Alpha  occ. eigenvalues --  -10.27872 -10.27863 -10.27550 -10.27348 -10.26817
 Alpha  occ. eigenvalues --  -10.26560  -1.15928  -1.15065  -1.14332  -1.13809
 Alpha  occ. eigenvalues --   -1.12235  -1.06689  -1.04779  -1.04131  -1.03488
 Alpha  occ. eigenvalues --   -1.02960  -1.01896  -0.94237  -0.91375  -0.90228
 Alpha  occ. eigenvalues --   -0.88542  -0.85204  -0.83389  -0.83128  -0.80695
 Alpha  occ. eigenvalues --   -0.78629  -0.77986  -0.76210  -0.75764  -0.72498
 Alpha  occ. eigenvalues --   -0.71614  -0.70703  -0.70308  -0.68596  -0.68297
 Alpha  occ. eigenvalues --   -0.67855  -0.67691  -0.66776  -0.65865  -0.63922
 Alpha  occ. eigenvalues --   -0.63489  -0.63074  -0.62627  -0.62064  -0.59752
 Alpha  occ. eigenvalues --   -0.59489  -0.58226  -0.57743  -0.57359  -0.56592
 Alpha  occ. eigenvalues --   -0.56160  -0.55313  -0.54823  -0.54313  -0.53962
 Alpha  occ. eigenvalues --   -0.53594  -0.53024  -0.52660  -0.51398  -0.51323
 Alpha  occ. eigenvalues --   -0.50656  -0.50575  -0.50026  -0.49910  -0.49192
 Alpha  occ. eigenvalues --   -0.48636  -0.48430  -0.48300  -0.48276  -0.47155
 Alpha  occ. eigenvalues --   -0.46609  -0.45848  -0.45333  -0.44850  -0.44544
 Alpha  occ. eigenvalues --   -0.44080  -0.43948  -0.43479  -0.43085  -0.42003
 Alpha  occ. eigenvalues --   -0.41417  -0.41343  -0.39169  -0.38621  -0.37786
 Alpha  occ. eigenvalues --   -0.37288  -0.36224  -0.34887  -0.34451  -0.33799
 Alpha  occ. eigenvalues --   -0.31152  -0.30265
 Alpha virt. eigenvalues --   -0.10661  -0.10507  -0.09566  -0.08951  -0.07817
 Alpha virt. eigenvalues --   -0.06151  -0.03915  -0.03689  -0.02590  -0.01809
 Alpha virt. eigenvalues --   -0.01240  -0.00522  -0.00280   0.00548   0.00741

 Mulliken charges:
               1
     1  N   -0.772650
     2  C   -0.088778
     3  C    0.653493
     4  O   -0.529090
     5  C   -0.398965
     6  C    0.122706
     7  C   -0.215869
     8  C   -0.188717
     9  C   -0.190681
    10  C   -0.154870
    11  C    0.358177
    12  O   -0.625845
    13  H    0.462580
    14  H    0.205577
    15  H    0.165386
    16  H    0.193580
    17  H    0.166509
    18  H    0.136301
    19  H    0.143636
    20  H    0.164194
    21  H    0.418577
    22  H    0.401716
    23  H    0.387742
    24  N   -0.656747
    25  C    0.001778
    26  C    0.626917
    27  O   -0.594130
    28  C   -0.129355
    29  C   -0.469315
    30  C   -0.447896
    31  H    0.354951
    32  H    0.195651
    33  H    0.155433
    34  H    0.135791
    35  H    0.177846
    36  H    0.162532
    37  H    0.161431
    38  H    0.165888
    39  H    0.157543
    40  N   -0.570077
    41  C   -0.072895
    42  C    0.608358
    43  O   -0.522261
    44  C   -0.268090
    45  C   -0.307291
    46  C   -0.149300
    47  N   -0.608689
    48  C    0.790100
    49  N   -0.760621
    50  N   -0.775903
    51  O   -0.674941
    52  H    0.359692
    53  H    0.158270
    54  H    0.166451
    55  H    0.169094
    56  H    0.164412
    57  H    0.175545
    58  H    0.184979
    59  H    0.167131
    60  H    0.404136
    61  H    0.379699
    62  H    0.382426
    63  H    0.366992
    64  H    0.419759
 Sum of Mulliken charges =   1.00000

 Dipole moment (field-independent basis, Debye):
    X=            170.1239    Y=           -144.5606    Z=            209.8598  Tot=            306.4002
 Quadrupole moment (field-independent basis, Debye-Ang):
   XX=           5921.8819   YY=           4198.6679   ZZ=           9039.0505
   XY=          -5103.3965   XZ=           7474.7158   YZ=          -6305.6649

 Normal termination of Gaussian 16 at Tue May 31 11:31:49 2022.
