 Gaussian 16, Revision C.01,
 Gaussian 16:  ES64L-G16RevC.01  3-Jul-2019

 ----------------------------------------------------------------------
 # B3LYP/6-31G* empiricaldispersion=gd3 guess=read geom=check nosymm in
 tegral(ultrafinegrid)
 ----------------------------------------------------------------------

 ------------------------------------------------------
 Candidate Structure: Conf:497 Charge calc in gas phase
 ------------------------------------------------------
 Structure from the checkpoint file:  "conf-497.chk"
 Charge =  1 Multiplicity = 1

                          Input orientation:
 ---------------------------------------------------------------------
 Center     Atomic      Atomic             Coordinates (Angstroms)
 Number     Number       Type             X           Y           Z
 ---------------------------------------------------------------------
      1          7           0       34.820056  -31.132223   45.125824
      2          6           0       33.593655  -31.939910   44.834053
      3          6           0       32.782604  -31.062822   43.856014
      4          8           0       32.762392  -29.844501   44.013828
      5          6           0       34.004170  -33.337600   44.325086
      6          6           0       35.005466  -34.013804   45.236306
      7          6           0       36.383302  -33.887550   44.989530
      8          6           0       34.594264  -34.728887   46.367165
      9          6           0       37.321414  -34.456500   45.844139
     10          6           0       35.523690  -35.307519   47.229522
     11          6           0       36.894033  -35.172879   46.970209
     12          8           0       37.858117  -35.708380   47.764725
     13          1           0       34.558789  -30.169807   45.360858
     14          1           0       33.016755  -32.033239   45.761530
     15          1           0       33.095501  -33.947917   44.247872
     16          1           0       34.430613  -33.226818   43.322872
     17          1           0       36.721092  -33.336197   44.114222
     18          1           0       33.533274  -34.848460   46.576743
     19          1           0       38.385813  -34.367353   45.653879
     20          1           0       35.186337  -35.868338   48.098399
     21          1           0       37.451813  -36.197673   48.497407
     22          1           0       35.380439  -31.552468   45.869321
     23          1           0       35.393563  -31.076726   44.130440
     24          7           0       32.148608  -31.671874   42.822506
     25          6           0       31.493006  -30.876370   41.781799
     26          6           0       32.477990  -29.861601   41.169214
     27          8           0       32.051111  -28.747722   40.804814
     28          6           0       30.826424  -31.795645   40.726074
     29          6           0       31.834518  -32.666686   39.958698
     30          6           0       29.965712  -30.971575   39.758423
     31          1           0       32.200478  -32.674052   42.711913
     32          1           0       30.723330  -30.254770   42.248938
     33          1           0       30.157378  -32.457184   41.295199
     34          1           0       32.456850  -33.287293   40.615882
     35          1           0       31.303999  -33.345935   39.284550
     36          1           0       32.507824  -32.049766   39.353746
     37          1           0       30.580413  -30.284333   39.167931
     38          1           0       29.220217  -30.374467   40.293754
     39          1           0       29.438206  -31.636108   39.067114
     40          7           0       33.756086  -30.252480   41.034299
     41          6           0       34.901761  -29.337553   41.168506
     42          6           0       35.662038  -29.750132   42.459890
     43          8           0       36.224572  -28.882185   43.116245
     44          6           0       35.827495  -29.353661   39.943624
     45          6           0       35.193913  -28.900661   38.618056
     46          6           0       34.867392  -27.402568   38.515202
     47          7           0       33.719080  -27.051662   39.362196
     48          6           0       33.595835  -25.967134   40.120826
     49          7           0       34.304725  -24.848952   39.873006
     50          7           0       32.751363  -25.994884   41.164580
     51          8           0       35.575000  -31.017346   42.745709
     52          1           0       33.996271  -31.151777   41.447063
     53          1           0       34.516951  -28.336903   41.357083
     54          1           0       36.204558  -30.376015   39.818796
     55          1           0       36.696379  -28.726205   40.179274
     56          1           0       34.285503  -29.484886   38.416852
     57          1           0       35.888214  -29.128866   37.801182
     58          1           0       34.642820  -27.140296   37.474514
     59          1           0       35.736918  -26.814630   38.833160
     60          1           0       33.072832  -27.809363   39.623400
     61          1           0       34.413198  -24.137548   40.580903
     62          1           0       34.851790  -24.755966   39.030929
     63          1           0       32.387989  -25.139639   41.558931
     64          1           0       32.284102  -26.874779   41.383259
 ---------------------------------------------------------------------

 SCF Done:  E(RB3LYP) =  -1486.59418632     A.U. after    1 cycles

 Alpha  occ. eigenvalues --  -19.25570 -19.23681 -19.23284 -19.19771 -19.17773
 Alpha  occ. eigenvalues --  -14.50764 -14.50700 -14.49227 -14.49069 -14.48000
 Alpha  occ. eigenvalues --  -14.45857 -10.46239 -10.40675 -10.40128 -10.36271
 Alpha  occ. eigenvalues --  -10.36032 -10.34698 -10.34040 -10.33298 -10.31677
 Alpha  occ. eigenvalues --  -10.30431 -10.30280 -10.29699 -10.28449 -10.28297
 Alpha  occ. eigenvalues --  -10.28055 -10.27640 -10.27537 -10.27395 -10.26741
 Alpha  occ. eigenvalues --  -10.26547  -1.15883  -1.15034  -1.14302  -1.13791
 Alpha  occ. eigenvalues --   -1.12230  -1.06559  -1.04748  -1.04104  -1.03469
 Alpha  occ. eigenvalues --   -1.02933  -1.01874  -0.94211  -0.91349  -0.90195
 Alpha  occ. eigenvalues --   -0.88501  -0.85178  -0.83285  -0.83187  -0.80672
 Alpha  occ. eigenvalues --   -0.78606  -0.77970  -0.76183  -0.75674  -0.72452
 Alpha  occ. eigenvalues --   -0.71552  -0.70841  -0.70307  -0.68578  -0.68198
 Alpha  occ. eigenvalues --   -0.67826  -0.67516  -0.66698  -0.65889  -0.63941
 Alpha  occ. eigenvalues --   -0.63464  -0.63042  -0.62569  -0.62021  -0.59711
 Alpha  occ. eigenvalues --   -0.59428  -0.58050  -0.57728  -0.57265  -0.56971
 Alpha  occ. eigenvalues --   -0.56031  -0.55154  -0.54624  -0.54288  -0.53954
 Alpha  occ. eigenvalues --   -0.53565  -0.53027  -0.52273  -0.52126  -0.51269
 Alpha  occ. eigenvalues --   -0.50630  -0.50589  -0.49924  -0.49760  -0.49052
 Alpha  occ. eigenvalues --   -0.48609  -0.48425  -0.48268  -0.48121  -0.47135
 Alpha  occ. eigenvalues --   -0.46683  -0.45834  -0.45214  -0.44795  -0.44586
 Alpha  occ. eigenvalues --   -0.44057  -0.43933  -0.43458  -0.43072  -0.41975
 Alpha  occ. eigenvalues --   -0.41394  -0.41313  -0.39144  -0.38591  -0.37759
 Alpha  occ. eigenvalues --   -0.37241  -0.36190  -0.34883  -0.34440  -0.33788
 Alpha  occ. eigenvalues --   -0.31125  -0.30238
 Alpha virt. eigenvalues --   -0.10627  -0.10474  -0.09526  -0.08948  -0.07798
 Alpha virt. eigenvalues --   -0.06119  -0.03893  -0.03671  -0.02563  -0.01702
 Alpha virt. eigenvalues --   -0.01202  -0.00486  -0.00221   0.00461   0.00758

 Mulliken charges:
               1
     1  N   -0.774031
     2  C   -0.087343
     3  C    0.652745
     4  O   -0.528626
     5  C   -0.398985
     6  C    0.124295
     7  C   -0.218270
     8  C   -0.188204
     9  C   -0.155508
    10  C   -0.189760
    11  C    0.358322
    12  O   -0.625912
    13  H    0.401308
    14  H    0.203954
    15  H    0.164215
    16  H    0.193817
    17  H    0.167185
    18  H    0.135783
    19  H    0.165297
    20  H    0.142167
    21  H    0.418438
    22  H    0.387489
    23  H    0.464275
    24  N   -0.656969
    25  C    0.001657
    26  C    0.626982
    27  O   -0.594123
    28  C   -0.129137
    29  C   -0.469445
    30  C   -0.447858
    31  H    0.354775
    32  H    0.195604
    33  H    0.155144
    34  H    0.135843
    35  H    0.177759
    36  H    0.162694
    37  H    0.157573
    38  H    0.161354
    39  H    0.165751
    40  N   -0.570098
    41  C   -0.073099
    42  C    0.608871
    43  O   -0.520836
    44  C   -0.268297
    45  C   -0.307247
    46  C   -0.149426
    47  N   -0.608472
    48  C    0.790198
    49  N   -0.760618
    50  N   -0.775944
    51  O   -0.674925
    52  H    0.359740
    53  H    0.158255
    54  H    0.167176
    55  H    0.169270
    56  H    0.164280
    57  H    0.175813
    58  H    0.185072
    59  H    0.167183
    60  H    0.403719
    61  H    0.379732
    62  H    0.382452
    63  H    0.367008
    64  H    0.419938
 Sum of Mulliken charges =   1.00000

 Dipole moment (field-independent basis, Debye):
    X=            160.0252    Y=           -141.1033    Z=            201.4396  Tot=            293.4214
 Quadrupole moment (field-independent basis, Debye-Ang):
   XX=           5154.9147   YY=           4061.1581   ZZ=           8336.2202
   XY=          -4694.2877   XZ=           6709.3331   YZ=          -5977.1416

 Normal termination of Gaussian 16 at Tue May 31 11:31:49 2022.
