 Gaussian 16, Revision C.01,
 Gaussian 16:  ES64L-G16RevC.01  3-Jul-2019

 ----------------------------------------------------------------------
 # B3LYP/6-31G* empiricaldispersion=gd3 guess=read geom=check nosymm in
 tegral(ultrafinegrid)
 ----------------------------------------------------------------------

 -----------------------------------------------------
 Candidate Structure: Conf:34 Charge calc in gas phase
 -----------------------------------------------------
 Structure from the checkpoint file:  "conf-34.chk"
 Charge =  1 Multiplicity = 1

                          Input orientation:
 ---------------------------------------------------------------------
 Center     Atomic      Atomic             Coordinates (Angstroms)
 Number     Number       Type             X           Y           Z
 ---------------------------------------------------------------------
      1          7           0       31.694269  -31.404776   42.271930
      2          6           0       32.210997  -32.723996   42.776232
      3          6           0       33.500815  -32.944037   41.953832
      4          8           0       33.549966  -32.498337   40.808678
      5          6           0       32.361833  -32.676010   44.309450
      6          6           0       31.116291  -32.152621   44.991445
      7          6           0       31.015647  -30.797521   45.334990
      8          6           0       30.016613  -32.988644   45.240749
      9          6           0       29.853741  -30.289173   45.916090
     10          6           0       28.854148  -32.495428   45.820796
     11          6           0       28.768347  -31.138571   46.164115
     12          8           0       27.605910  -30.718197   46.729359
     13          1           0       30.752032  -31.210621   42.616913
     14          1           0       31.478766  -33.488137   42.492269
     15          1           0       32.581069  -33.693774   44.655225
     16          1           0       33.217615  -32.039811   44.552793
     17          1           0       31.856330  -30.133215   45.145582
     18          1           0       30.075096  -34.045860   44.989967
     19          1           0       29.794753  -29.236750   46.185142
     20          1           0       28.006369  -33.140480   46.026350
     21          1           0       27.668349  -29.777529   46.958490
     22          1           0       32.403536  -30.641358   42.608134
     23          1           0       31.735736  -31.411055   41.245864
     24          7           0       34.533658  -33.579910   42.547433
     25          6           0       35.847616  -33.647500   41.890142
     26          6           0       36.375223  -32.228892   41.559402
     27          8           0       37.019070  -32.028527   40.541589
     28          6           0       36.833272  -34.494339   42.731095
     29          6           0       37.135616  -33.881518   44.108826
     30          6           0       38.129049  -34.738739   41.944625
     31          1           0       34.444906  -33.915240   43.496112
     32          1           0       35.715008  -34.116997   40.911898
     33          1           0       36.339363  -35.465477   42.883939
     34          1           0       37.643158  -32.916832   44.006024
     35          1           0       36.234614  -33.717678   44.715521
     36          1           0       37.786939  -34.549685   44.680757
     37          1           0       38.798904  -35.388574   42.516889
     38          1           0       38.650976  -33.798562   41.741196
     39          1           0       37.926400  -35.218897   40.981717
     40          7           0       36.087487  -31.255351   42.484539
     41          6           0       35.918279  -29.868540   42.057508
     42          6           0       34.405838  -29.543640   42.129013
     43          8           0       33.892319  -28.775385   41.279573
     44          6           0       36.792738  -28.894882   42.885232
     45          6           0       37.157958  -27.598910   42.139226
     46          6           0       36.017820  -26.560522   42.046946
     47          7           0       36.094263  -25.748349   40.817965
     48          6           0       35.832777  -26.214409   39.588591
     49          7           0       35.253102  -27.394895   39.406302
     50          7           0       36.166655  -25.445184   38.524812
     51          8           0       33.762035  -30.108381   43.073249
     52          1           0       35.427222  -31.508017   43.209811
     53          1           0       36.236659  -29.828565   41.012439
     54          1           0       37.720496  -29.428574   43.114374
     55          1           0       36.309826  -28.677729   43.847352
     56          1           0       37.477107  -27.869041   41.125419
     57          1           0       38.026225  -27.131589   42.617063
     58          1           0       36.058562  -25.855959   42.880639
     59          1           0       35.035441  -27.031542   42.081553
     60          1           0       36.397101  -24.787721   40.893331
     61          1           0       35.199285  -27.775750   38.471722
     62          1           0       34.768513  -27.945966   40.166902
     63          1           0       35.888338  -25.709876   37.591494
     64          1           0       36.876968  -24.731995   38.601411
 ---------------------------------------------------------------------

 SCF Done:  E(RB3LYP) =  -1486.58624919     A.U. after    2 cycles

 Alpha  occ. eigenvalues --  -19.25992 -19.22705 -19.20719 -19.20480 -19.19076
 Alpha  occ. eigenvalues --  -14.52758 -14.50526 -14.50369 -14.48203 -14.47133
 Alpha  occ. eigenvalues --  -14.42946 -10.46272 -10.40135 -10.37991 -10.36495
 Alpha  occ. eigenvalues --  -10.36259 -10.33723 -10.33585 -10.31802 -10.30855
 Alpha  occ. eigenvalues --  -10.30619 -10.28906 -10.28672 -10.28334 -10.28260
 Alpha  occ. eigenvalues --  -10.28232 -10.27893 -10.27790 -10.27199 -10.25898
 Alpha  occ. eigenvalues --  -10.24414  -1.15261  -1.14689  -1.14216  -1.13799
 Alpha  occ. eigenvalues --   -1.10950  -1.08125  -1.04913  -1.04195  -1.03441
 Alpha  occ. eigenvalues --   -1.02185  -0.99660  -0.94635  -0.90207  -0.89421
 Alpha  occ. eigenvalues --   -0.88262  -0.83937  -0.83707  -0.83104  -0.79660
 Alpha  occ. eigenvalues --   -0.77942  -0.76436  -0.75753  -0.75174  -0.72127
 Alpha  occ. eigenvalues --   -0.71173  -0.70405  -0.69894  -0.68954  -0.68239
 Alpha  occ. eigenvalues --   -0.68132  -0.66702  -0.66140  -0.65405  -0.63966
 Alpha  occ. eigenvalues --   -0.63366  -0.62974  -0.62611  -0.61362  -0.59452
 Alpha  occ. eigenvalues --   -0.58439  -0.57309  -0.56945  -0.56751  -0.56177
 Alpha  occ. eigenvalues --   -0.55809  -0.55403  -0.54565  -0.53551  -0.53095
 Alpha  occ. eigenvalues --   -0.53015  -0.52179  -0.51800  -0.51301  -0.51043
 Alpha  occ. eigenvalues --   -0.50937  -0.50469  -0.49961  -0.49513  -0.48810
 Alpha  occ. eigenvalues --   -0.48362  -0.47684  -0.47126  -0.46395  -0.46153
 Alpha  occ. eigenvalues --   -0.46087  -0.45320  -0.45229  -0.44721  -0.44033
 Alpha  occ. eigenvalues --   -0.42867  -0.42387  -0.42105  -0.41778  -0.41546
 Alpha  occ. eigenvalues --   -0.41246  -0.40759  -0.38763  -0.37358  -0.36797
 Alpha  occ. eigenvalues --   -0.36416  -0.35989  -0.35391  -0.34211  -0.32212
 Alpha  occ. eigenvalues --   -0.32063  -0.30651
 Alpha virt. eigenvalues --   -0.10355  -0.09754  -0.09300  -0.08127  -0.07203
 Alpha virt. eigenvalues --   -0.06539  -0.04999  -0.03506  -0.03373  -0.02493
 Alpha virt. eigenvalues --   -0.02104  -0.00719   0.00089   0.00495   0.00752

 Mulliken charges:
               1
     1  N   -0.763765
     2  C   -0.101342
     3  C    0.659467
     4  O   -0.527870
     5  C   -0.396249
     6  C    0.119582
     7  C   -0.217671
     8  C   -0.190485
     9  C   -0.191254
    10  C   -0.154757
    11  C    0.357837
    12  O   -0.625259
    13  H    0.391931
    14  H    0.208978
    15  H    0.169373
    16  H    0.199168
    17  H    0.165101
    18  H    0.139148
    19  H    0.140431
    20  H    0.165795
    21  H    0.418065
    22  H    0.449952
    23  H    0.405418
    24  N   -0.655799
    25  C   -0.009338
    26  C    0.603438
    27  O   -0.508449
    28  C   -0.124850
    29  C   -0.467634
    30  C   -0.450130
    31  H    0.350661
    32  H    0.198648
    33  H    0.145717
    34  H    0.171460
    35  H    0.121610
    36  H    0.171847
    37  H    0.156833
    38  H    0.174429
    39  H    0.160968
    40  N   -0.596347
    41  C   -0.053581
    42  C    0.633530
    43  O   -0.582173
    44  C   -0.281234
    45  C   -0.281399
    46  C   -0.187485
    47  N   -0.598390
    48  C    0.804047
    49  N   -0.790800
    50  N   -0.769763
    51  O   -0.633322
    52  H    0.338426
    53  H    0.173759
    54  H    0.175812
    55  H    0.153652
    56  H    0.160377
    57  H    0.162768
    58  H    0.180486
    59  H    0.213027
    60  H    0.357114
    61  H    0.361189
    62  H    0.451220
    63  H    0.375260
    64  H    0.372821
 Sum of Mulliken charges =   1.00000

 Dipole moment (field-independent basis, Debye):
    X=            164.1624    Y=           -137.3395    Z=            200.7846  Tot=            293.4721
 Quadrupole moment (field-independent basis, Debye-Ang):
   XX=           5471.3309   YY=           3829.7944   ZZ=           8251.4372
   XY=          -4659.9623   XZ=           6841.2078   YZ=          -5781.5740

 Normal termination of Gaussian 16 at Tue May 31 11:31:58 2022.
