 Gaussian 16, Revision C.01,
 Gaussian 16:  ES64L-G16RevC.01  3-Jul-2019

 ----------------------------------------------------------------------
 # B3LYP/6-31G* empiricaldispersion=gd3 guess=read geom=check nosymm in
 tegral(ultrafinegrid)
 ----------------------------------------------------------------------

 ------------------------------------------------------
 Candidate Structure: Conf:460 Charge calc in gas phase
 ------------------------------------------------------
 Structure from the checkpoint file:  "conf-460.chk"
 Charge =  1 Multiplicity = 1

                          Input orientation:
 ---------------------------------------------------------------------
 Center     Atomic      Atomic             Coordinates (Angstroms)
 Number     Number       Type             X           Y           Z
 ---------------------------------------------------------------------
      1          7           0       36.211842  -32.192042   43.331212
      2          6           0       36.596485  -30.845618   42.800592
      3          6           0       35.597797  -30.588338   41.652066
      4          8           0       35.252404  -31.522883   40.932926
      5          6           0       36.598407  -29.820012   43.953286
      6          6           0       37.406089  -30.292285   45.142598
      7          6           0       36.775082  -30.940784   46.212943
      8          6           0       38.801563  -30.146818   45.178453
      9          6           0       37.512492  -31.428777   47.291595
     10          6           0       39.547921  -30.625941   46.248207
     11          6           0       38.903696  -31.270562   47.313913
     12          8           0       39.688664  -31.715814   48.330243
     13          1           0       36.100905  -32.855212   42.558044
     14          1           0       37.599574  -30.923882   42.365523
     15          1           0       37.013336  -28.880135   43.567594
     16          1           0       35.561753  -29.640576   44.255533
     17          1           0       35.694375  -31.067059   46.202332
     18          1           0       39.312230  -29.639804   44.362205
     19          1           0       37.006288  -31.923977   48.117300
     20          1           0       40.625603  -30.506321   46.285267
     21          1           0       39.140390  -32.120249   49.021030
     22          1           0       36.889326  -32.534125   44.014916
     23          1           0       35.170278  -32.052386   43.788916
     24          7           0       35.100902  -29.334783   41.503046
     25          6           0       34.039791  -29.068498   40.529000
     26          6           0       32.838742  -30.005790   40.761716
     27          8           0       32.185439  -30.407815   39.778196
     28          6           0       33.654098  -27.566780   40.533725
     29          6           0       33.064744  -27.097154   41.873781
     30          6           0       32.699764  -27.250406   39.373798
     31          1           0       35.393695  -28.593180   42.122438
     32          1           0       34.402546  -29.339471   39.533011
     33          1           0       34.593505  -27.023162   40.357217
     34          1           0       33.727998  -27.287440   42.727137
     35          1           0       32.882301  -26.018671   41.843941
     36          1           0       32.110857  -27.594437   42.080545
     37          1           0       31.745367  -27.774002   39.491319
     38          1           0       33.126394  -27.548942   38.410603
     39          1           0       32.496278  -26.175646   39.338406
     40          7           0       32.542255  -30.318458   42.034120
     41          6           0       31.995859  -31.623369   42.441821
     42          6           0       33.093795  -32.333490   43.282698
     43          8           0       33.170196  -33.555587   43.239211
     44          6           0       30.681096  -31.504521   43.226086
     45          6           0       29.500817  -30.875761   42.467553
     46          6           0       28.903486  -31.731896   41.339835
     47          7           0       29.810189  -31.793068   40.185273
     48          6           0       30.078967  -32.863439   39.444430
     49          7           0       29.231380  -33.908354   39.381775
     50          7           0       31.229271  -32.904772   38.752630
     51          8           0       33.876685  -31.520975   43.931235
     52          1           0       33.201704  -29.996812   42.740221
     53          1           0       31.866257  -32.231440   41.548186
     54          1           0       30.876725  -30.906279   44.124344
     55          1           0       30.412818  -32.510680   43.572255
     56          1           0       29.792407  -29.896293   42.064288
     57          1           0       28.690104  -30.681373   43.179160
     58          1           0       27.941475  -31.312126   41.022607
     59          1           0       28.724964  -32.749964   41.706671
     60          1           0       30.510068  -31.043740   40.091101
     61          1           0       29.542034  -34.807446   39.044030
     62          1           0       28.309761  -33.855607   39.787788
     63          1           0       31.330913  -33.513763   37.953988
     64          1           0       31.892881  -32.139937   38.875088
 ---------------------------------------------------------------------

 SCF Done:  E(RB3LYP) =  -1486.59424608     A.U. after    1 cycles

 Alpha  occ. eigenvalues --  -19.25584 -19.23713 -19.23327 -19.19772 -19.17787
 Alpha  occ. eigenvalues --  -14.50854 -14.50799 -14.49258 -14.49089 -14.48034
 Alpha  occ. eigenvalues --  -14.45882 -10.46269 -10.40717 -10.40158 -10.36293
 Alpha  occ. eigenvalues --  -10.36080 -10.34732 -10.34065 -10.33315 -10.31708
 Alpha  occ. eigenvalues --  -10.30444 -10.30297 -10.29741 -10.28494 -10.28308
 Alpha  occ. eigenvalues --  -10.27870 -10.27858 -10.27554 -10.27344 -10.26815
 Alpha  occ. eigenvalues --  -10.26562  -1.15925  -1.15066  -1.14333  -1.13807
 Alpha  occ. eigenvalues --   -1.12235  -1.06682  -1.04779  -1.04133  -1.03489
 Alpha  occ. eigenvalues --   -1.02964  -1.01898  -0.94233  -0.91375  -0.90231
 Alpha  occ. eigenvalues --   -0.88538  -0.85206  -0.83385  -0.83125  -0.80694
 Alpha  occ. eigenvalues --   -0.78632  -0.77988  -0.76215  -0.75760  -0.72500
 Alpha  occ. eigenvalues --   -0.71615  -0.70700  -0.70308  -0.68598  -0.68294
 Alpha  occ. eigenvalues --   -0.67860  -0.67688  -0.66774  -0.65867  -0.63921
 Alpha  occ. eigenvalues --   -0.63494  -0.63078  -0.62624  -0.62063  -0.59751
 Alpha  occ. eigenvalues --   -0.59491  -0.58224  -0.57743  -0.57357  -0.56592
 Alpha  occ. eigenvalues --   -0.56156  -0.55311  -0.54823  -0.54316  -0.53964
 Alpha  occ. eigenvalues --   -0.53594  -0.53023  -0.52657  -0.51396  -0.51323
 Alpha  occ. eigenvalues --   -0.50653  -0.50572  -0.50027  -0.49911  -0.49193
 Alpha  occ. eigenvalues --   -0.48636  -0.48428  -0.48300  -0.48276  -0.47157
 Alpha  occ. eigenvalues --   -0.46608  -0.45843  -0.45336  -0.44853  -0.44541
 Alpha  occ. eigenvalues --   -0.44080  -0.43950  -0.43480  -0.43086  -0.42000
 Alpha  occ. eigenvalues --   -0.41414  -0.41346  -0.39171  -0.38621  -0.37786
 Alpha  occ. eigenvalues --   -0.37286  -0.36222  -0.34890  -0.34453  -0.33796
 Alpha  occ. eigenvalues --   -0.31151  -0.30262
 Alpha virt. eigenvalues --   -0.10659  -0.10506  -0.09563  -0.08946  -0.07813
 Alpha virt. eigenvalues --   -0.06154  -0.03914  -0.03692  -0.02595  -0.01811
 Alpha virt. eigenvalues --   -0.01247  -0.00526  -0.00279   0.00547   0.00742

 Mulliken charges:
               1
     1  N   -0.772690
     2  C   -0.088768
     3  C    0.653480
     4  O   -0.529039
     5  C   -0.398927
     6  C    0.122603
     7  C   -0.215691
     8  C   -0.188750
     9  C   -0.190696
    10  C   -0.154889
    11  C    0.358161
    12  O   -0.625856
    13  H    0.401607
    14  H    0.205532
    15  H    0.165369
    16  H    0.193550
    17  H    0.166497
    18  H    0.136276
    19  H    0.143616
    20  H    0.164179
    21  H    0.418572
    22  H    0.387718
    23  H    0.462697
    24  N   -0.656800
    25  C    0.001666
    26  C    0.626918
    27  O   -0.594168
    28  C   -0.129256
    29  C   -0.469347
    30  C   -0.447926
    31  H    0.354940
    32  H    0.195689
    33  H    0.155471
    34  H    0.135736
    35  H    0.177860
    36  H    0.162526
    37  H    0.157518
    38  H    0.161451
    39  H    0.165885
    40  N   -0.570014
    41  C   -0.073002
    42  C    0.608426
    43  O   -0.522025
    44  C   -0.268062
    45  C   -0.307300
    46  C   -0.149291
    47  N   -0.608718
    48  C    0.790287
    49  N   -0.760668
    50  N   -0.775977
    51  O   -0.675013
    52  H    0.359665
    53  H    0.158296
    54  H    0.166392
    55  H    0.169163
    56  H    0.164381
    57  H    0.175545
    58  H    0.184937
    59  H    0.167232
    60  H    0.404049
    61  H    0.379705
    62  H    0.382462
    63  H    0.367000
    64  H    0.419818
 Sum of Mulliken charges =   1.00000

 Dipole moment (field-independent basis, Debye):
    X=            156.8146    Y=           -150.5675    Z=            198.7368  Tot=            294.5466
 Quadrupole moment (field-independent basis, Debye-Ang):
   XX=           5018.5374   YY=           4570.0955   ZZ=           8087.9179
   XY=          -4892.6317   XZ=           6526.0314   YZ=          -6217.8248

 Normal termination of Gaussian 16 at Tue May 31 11:31:49 2022.
