 Gaussian 16, Revision C.01,
 Gaussian 16:  ES64L-G16RevC.01  3-Jul-2019

 ----------------------------------------------------------------------
 # B3LYP/6-31G* empiricaldispersion=gd3 guess=read geom=check nosymm in
 tegral(ultrafinegrid)
 ----------------------------------------------------------------------

 ------------------------------------------------------
 Candidate Structure: Conf:472 Charge calc in gas phase
 ------------------------------------------------------
 Structure from the checkpoint file:  "conf-472.chk"
 Charge =  1 Multiplicity = 1

                          Input orientation:
 ---------------------------------------------------------------------
 Center     Atomic      Atomic             Coordinates (Angstroms)
 Number     Number       Type             X           Y           Z
 ---------------------------------------------------------------------
      1          7           0       36.074368  -29.973641   44.096633
      2          6           0       35.425791  -31.157338   44.745151
      3          6           0       33.924587  -30.993088   44.425663
      4          8           0       33.427895  -29.869181   44.424719
      5          6           0       36.098678  -32.451605   44.242460
      6          6           0       37.605992  -32.402414   44.366833
      7          6           0       38.392726  -32.006377   43.276585
      8          6           0       38.245672  -32.693270   45.581738
      9          6           0       39.779079  -31.905134   43.391307
     10          6           0       39.626238  -32.599175   45.708868
     11          6           0       40.401771  -32.204047   44.609458
     12          8           0       41.745948  -32.131818   44.797345
     13          1           0       35.565014  -29.118046   44.338345
     14          1           0       35.552841  -31.064585   45.829979
     15          1           0       35.701146  -33.288595   44.830416
     16          1           0       35.816603  -32.601428   43.195428
     17          1           0       37.915705  -31.773132   42.326817
     18          1           0       37.655948  -33.010370   46.439509
     19          1           0       40.375465  -31.602500   42.533410
     20          1           0       40.125990  -32.833350   46.642941
     21          1           0       42.183872  -31.875455   43.970391
     22          1           0       37.060784  -29.898998   44.351372
     23          1           0       35.930491  -30.127274   42.970265
     24          7           0       33.210393  -32.103510   44.113805
     25          6           0       31.823256  -31.989695   43.657349
     26          6           0       31.722555  -31.033396   42.453012
     27          8           0       30.708829  -30.316721   42.332589
     28          6           0       31.220015  -33.390549   43.378742
     29          6           0       31.932186  -34.141523   42.241796
     30          6           0       29.712967  -33.285223   43.106785
     31          1           0       33.654388  -33.010235   44.107903
     32          1           0       31.236271  -31.498949   44.439437
     33          1           0       31.357171  -33.958478   44.310312
     34          1           0       33.010790  -34.255432   42.409101
     35          1           0       31.515454  -35.148230   42.140892
     36          1           0       31.799849  -33.624877   41.284979
     37          1           0       29.513888  -32.719106   42.190965
     38          1           0       29.191294  -32.783057   43.928106
     39          1           0       29.282521  -34.284583   42.989515
     40          7           0       32.736907  -31.047032   41.572308
     41          6           0       33.194536  -29.851240   40.845496
     42          6           0       34.615098  -29.511564   41.378026
     43          8           0       34.964561  -28.337753   41.415558
     44          6           0       33.199471  -30.040091   39.321669
     45          6           0       31.832070  -30.312351   38.673596
     46          6           0       30.856833  -29.124873   38.656249
     47          7           0       30.334087  -28.850522   40.001704
     48          6           0       30.147041  -27.654595   40.550735
     49          7           0       29.996910  -26.548494   39.796933
     50          7           0       30.119223  -27.549382   41.889293
     51          8           0       35.291037  -30.544832   41.789116
     52          1           0       33.544714  -31.612275   41.827168
     53          1           0       32.561063  -29.014660   41.135323
     54          1           0       33.869304  -30.876398   39.087261
     55          1           0       33.652490  -29.143014   38.880996
     56          1           0       31.349650  -31.171163   39.160151
     57          1           0       31.990952  -30.605433   37.629435
     58          1           0       30.020770  -29.338753   37.979813
     59          1           0       31.372991  -28.230914   38.285658
     60          1           0       30.368800  -29.615973   40.689592
     61          1           0       30.117510  -25.629388   40.196493
     62          1           0       29.890027  -26.611678   38.796137
     63          1           0       29.673415  -26.762091   42.337012
     64          1           0       30.313049  -28.384189   42.442327
 ---------------------------------------------------------------------

 SCF Done:  E(RB3LYP) =  -1486.59423728     A.U. after    2 cycles

 Alpha  occ. eigenvalues --  -19.25587 -19.23713 -19.23329 -19.19770 -19.17786
 Alpha  occ. eigenvalues --  -14.50865 -14.50794 -14.49254 -14.49081 -14.48035
 Alpha  occ. eigenvalues --  -14.45874 -10.46263 -10.40719 -10.40156 -10.36292
 Alpha  occ. eigenvalues --  -10.36084 -10.34725 -10.34064 -10.33318 -10.31703
 Alpha  occ. eigenvalues --  -10.30449 -10.30296 -10.29736 -10.28489 -10.28313
 Alpha  occ. eigenvalues --  -10.27873 -10.27864 -10.27549 -10.27348 -10.26818
 Alpha  occ. eigenvalues --  -10.26560  -1.15926  -1.15063  -1.14330  -1.13810
 Alpha  occ. eigenvalues --   -1.12236  -1.06691  -1.04780  -1.04127  -1.03489
 Alpha  occ. eigenvalues --   -1.02960  -1.01894  -0.94238  -0.91375  -0.90226
 Alpha  occ. eigenvalues --   -0.88542  -0.85201  -0.83389  -0.83128  -0.80693
 Alpha  occ. eigenvalues --   -0.78627  -0.77986  -0.76209  -0.75764  -0.72498
 Alpha  occ. eigenvalues --   -0.71612  -0.70703  -0.70306  -0.68594  -0.68297
 Alpha  occ. eigenvalues --   -0.67854  -0.67692  -0.66776  -0.65868  -0.63921
 Alpha  occ. eigenvalues --   -0.63488  -0.63075  -0.62628  -0.62062  -0.59747
 Alpha  occ. eigenvalues --   -0.59491  -0.58225  -0.57740  -0.57358  -0.56591
 Alpha  occ. eigenvalues --   -0.56161  -0.55313  -0.54822  -0.54311  -0.53963
 Alpha  occ. eigenvalues --   -0.53594  -0.53023  -0.52661  -0.51398  -0.51315
 Alpha  occ. eigenvalues --   -0.50657  -0.50575  -0.50025  -0.49909  -0.49191
 Alpha  occ. eigenvalues --   -0.48637  -0.48431  -0.48298  -0.48275  -0.47154
 Alpha  occ. eigenvalues --   -0.46607  -0.45846  -0.45333  -0.44849  -0.44545
 Alpha  occ. eigenvalues --   -0.44079  -0.43948  -0.43477  -0.43084  -0.42004
 Alpha  occ. eigenvalues --   -0.41417  -0.41342  -0.39167  -0.38617  -0.37781
 Alpha  occ. eigenvalues --   -0.37288  -0.36223  -0.34888  -0.34451  -0.33800
 Alpha  occ. eigenvalues --   -0.31152  -0.30266
 Alpha virt. eigenvalues --   -0.10659  -0.10502  -0.09564  -0.08951  -0.07817
 Alpha virt. eigenvalues --   -0.06151  -0.03912  -0.03686  -0.02592  -0.01811
 Alpha virt. eigenvalues --   -0.01231  -0.00522  -0.00280   0.00548   0.00742

 Mulliken charges:
               1
     1  N   -0.772610
     2  C   -0.088802
     3  C    0.653551
     4  O   -0.529180
     5  C   -0.399010
     6  C    0.122698
     7  C   -0.215898
     8  C   -0.188700
     9  C   -0.190656
    10  C   -0.154871
    11  C    0.358174
    12  O   -0.625846
    13  H    0.401675
    14  H    0.205556
    15  H    0.165381
    16  H    0.193683
    17  H    0.166487
    18  H    0.136293
    19  H    0.143640
    20  H    0.164197
    21  H    0.418579
    22  H    0.387745
    23  H    0.462550
    24  N   -0.656699
    25  C    0.001766
    26  C    0.626913
    27  O   -0.594163
    28  C   -0.129346
    29  C   -0.469329
    30  C   -0.447964
    31  H    0.354958
    32  H    0.195570
    33  H    0.155417
    34  H    0.135766
    35  H    0.177842
    36  H    0.162604
    37  H    0.157594
    38  H    0.161426
    39  H    0.165910
    40  N   -0.570013
    41  C   -0.073017
    42  C    0.608403
    43  O   -0.522280
    44  C   -0.268014
    45  C   -0.307356
    46  C   -0.149240
    47  N   -0.608804
    48  C    0.790301
    49  N   -0.760690
    50  N   -0.775985
    51  O   -0.674945
    52  H    0.359734
    53  H    0.158302
    54  H    0.166371
    55  H    0.169190
    56  H    0.164397
    57  H    0.175554
    58  H    0.184895
    59  H    0.167268
    60  H    0.404160
    61  H    0.379683
    62  H    0.382464
    63  H    0.366975
    64  H    0.419748
 Sum of Mulliken charges =   1.00000

 Dipole moment (field-independent basis, Debye):
    X=            156.2639    Y=           -143.5601    Z=            201.4806  Tot=            292.6129
 Quadrupole moment (field-independent basis, Debye-Ang):
   XX=           4972.6021   YY=           4155.4584   ZZ=           8312.1370
   XY=          -4702.4819   XZ=           6584.8505   YZ=          -6045.5665

 Normal termination of Gaussian 16 at Tue May 31 11:32:00 2022.
