 Gaussian 16, Revision C.01,
 Gaussian 16:  ES64L-G16RevC.01  3-Jul-2019

 ----------------------------------------------------------------------
 # B3LYP/6-31G* empiricaldispersion=gd3 guess=read geom=check nosymm in
 tegral(ultrafinegrid)
 ----------------------------------------------------------------------

 ------------------------------------------------------
 Candidate Structure: Conf:684 Charge calc in gas phase
 ------------------------------------------------------
 Structure from the checkpoint file:  "conf-684.chk"
 Charge =  1 Multiplicity = 1

                          Input orientation:
 ---------------------------------------------------------------------
 Center     Atomic      Atomic             Coordinates (Angstroms)
 Number     Number       Type             X           Y           Z
 ---------------------------------------------------------------------
      1          7           0       32.932001  -31.498192   44.894941
      2          6           0       32.391501  -30.178342   44.438670
      3          6           0       33.603733  -29.469943   43.797374
      4          8           0       34.716372  -29.604117   44.301271
      5          6           0       31.169231  -30.411141   43.526151
      6          6           0       30.150288  -31.337403   44.153584
      7          6           0       30.166129  -32.707926   43.860598
      8          6           0       29.209222  -30.863112   45.080531
      9          6           0       29.267614  -33.582661   44.471251
     10          6           0       28.306655  -31.723278   45.694114
     11          6           0       28.331610  -33.091910   45.389961
     12          8           0       27.423186  -33.880651   46.022409
     13          1           0       33.208307  -32.061930   43.936052
     14          1           0       32.095119  -29.605855   45.325235
     15          1           0       30.711931  -29.435168   43.319655
     16          1           0       31.522264  -30.833293   42.579903
     17          1           0       30.890637  -33.096197   43.147634
     18          1           0       29.173191  -29.801715   45.317681
     19          1           0       29.289205  -34.642592   44.227663
     20          1           0       27.570445  -31.359529   46.403171
     21          1           0       27.512423  -34.798353   45.720382
     22          1           0       33.806463  -31.360038   45.410764
     23          1           0       32.249818  -32.009230   45.457888
     24          7           0       33.401114  -28.751197   42.664746
     25          6           0       34.536508  -28.184516   41.933052
     26          6           0       35.568587  -29.278586   41.596828
     27          8           0       36.781233  -28.986564   41.595766
     28          6           0       34.050417  -27.398310   40.688290
     29          6           0       33.336471  -28.283476   39.653694
     30          6           0       35.214579  -26.632188   40.044777
     31          1           0       32.475878  -28.674588   42.267946
     32          1           0       35.075654  -27.502038   42.596808
     33          1           0       33.330281  -26.660780   41.071227
     34          1           0       32.483373  -28.832985   40.071534
     35          1           0       32.950903  -27.666042   38.836737
     36          1           0       34.024077  -29.019828   39.223645
     37          1           0       35.707228  -25.971594   40.765751
     38          1           0       34.847180  -26.019155   39.215940
     39          1           0       35.971628  -27.318410   39.651290
     40          7           0       35.093083  -30.497469   41.292137
     41          6           0       35.790955  -31.748114   41.633134
     42          6           0       34.927325  -32.473506   42.703145
     43          8           0       35.490705  -33.156487   43.550146
     44          6           0       36.041414  -32.647362   40.413897
     45          6           0       36.942514  -32.056995   39.316944
     46          6           0       38.428513  -31.915533   39.682085
     47          7           0       38.634151  -30.828925   40.649447
     48          6           0       39.446852  -30.847031   41.701037
     49          7           0       40.501221  -31.682894   41.763051
     50          7           0       39.200590  -30.018585   42.728969
     51          8           0       33.652025  -32.230387   42.612592
     52          1           0       34.090708  -30.630887   41.412356
     53          1           0       36.724923  -31.491167   42.129916
     54          1           0       35.068810  -32.893932   39.970852
     55          1           0       36.465604  -33.589929   40.782405
     56          1           0       36.553166  -31.081232   38.995540
     57          1           0       36.894732  -32.707443   38.435998
     58          1           0       39.016672  -31.712384   38.779259
     59          1           0       38.790587  -32.854236   40.118688
     60          1           0       37.909707  -30.099201   40.704494
     61          1           0       40.951257  -31.883985   42.643945
     62          1           0       40.782804  -32.225361   40.960903
     63          1           0       39.933105  -29.764702   43.375499
     64          1           0       38.354102  -29.450416   42.697646
 ---------------------------------------------------------------------

 SCF Done:  E(RB3LYP) =  -1486.59423877     A.U. after    3 cycles

 Alpha  occ. eigenvalues --  -19.25586 -19.23713 -19.23331 -19.19775 -19.17791
 Alpha  occ. eigenvalues --  -14.50863 -14.50795 -14.49255 -14.49084 -14.48037
 Alpha  occ. eigenvalues --  -14.45878 -10.46265 -10.40721 -10.40157 -10.36297
 Alpha  occ. eigenvalues --  -10.36085 -10.34728 -10.34065 -10.33317 -10.31708
 Alpha  occ. eigenvalues --  -10.30449 -10.30296 -10.29738 -10.28493 -10.28311
 Alpha  occ. eigenvalues --  -10.27873 -10.27861 -10.27551 -10.27346 -10.26818
 Alpha  occ. eigenvalues --  -10.26561  -1.15928  -1.15064  -1.14330  -1.13809
 Alpha  occ. eigenvalues --   -1.12241  -1.06690  -1.04780  -1.04130  -1.03493
 Alpha  occ. eigenvalues --   -1.02960  -1.01897  -0.94236  -0.91375  -0.90228
 Alpha  occ. eigenvalues --   -0.88541  -0.85205  -0.83388  -0.83127  -0.80694
 Alpha  occ. eigenvalues --   -0.78630  -0.77987  -0.76211  -0.75763  -0.72499
 Alpha  occ. eigenvalues --   -0.71613  -0.70702  -0.70309  -0.68596  -0.68297
 Alpha  occ. eigenvalues --   -0.67855  -0.67690  -0.66775  -0.65869  -0.63923
 Alpha  occ. eigenvalues --   -0.63491  -0.63076  -0.62626  -0.62065  -0.59751
 Alpha  occ. eigenvalues --   -0.59490  -0.58227  -0.57743  -0.57359  -0.56593
 Alpha  occ. eigenvalues --   -0.56160  -0.55313  -0.54822  -0.54313  -0.53962
 Alpha  occ. eigenvalues --   -0.53595  -0.53024  -0.52659  -0.51400  -0.51321
 Alpha  occ. eigenvalues --   -0.50655  -0.50574  -0.50028  -0.49911  -0.49192
 Alpha  occ. eigenvalues --   -0.48638  -0.48431  -0.48301  -0.48278  -0.47156
 Alpha  occ. eigenvalues --   -0.46609  -0.45848  -0.45336  -0.44851  -0.44543
 Alpha  occ. eigenvalues --   -0.44080  -0.43948  -0.43480  -0.43086  -0.42002
 Alpha  occ. eigenvalues --   -0.41417  -0.41342  -0.39168  -0.38619  -0.37784
 Alpha  occ. eigenvalues --   -0.37289  -0.36224  -0.34893  -0.34457  -0.33799
 Alpha  occ. eigenvalues --   -0.31157  -0.30265
 Alpha virt. eigenvalues --   -0.10659  -0.10506  -0.09565  -0.08949  -0.07817
 Alpha virt. eigenvalues --   -0.06151  -0.03917  -0.03690  -0.02592  -0.01816
 Alpha virt. eigenvalues --   -0.01241  -0.00521  -0.00280   0.00549   0.00738

 Mulliken charges:
               1
     1  N   -0.772658
     2  C   -0.088739
     3  C    0.653488
     4  O   -0.529134
     5  C   -0.398950
     6  C    0.122528
     7  C   -0.215699
     8  C   -0.188754
     9  C   -0.190702
    10  C   -0.154897
    11  C    0.358179
    12  O   -0.625849
    13  H    0.462684
    14  H    0.205539
    15  H    0.165427
    16  H    0.193503
    17  H    0.166551
    18  H    0.136295
    19  H    0.143634
    20  H    0.164188
    21  H    0.418578
    22  H    0.401600
    23  H    0.387759
    24  N   -0.656766
    25  C    0.001818
    26  C    0.626894
    27  O   -0.594226
    28  C   -0.129336
    29  C   -0.469301
    30  C   -0.447945
    31  H    0.354959
    32  H    0.195621
    33  H    0.155416
    34  H    0.135751
    35  H    0.177837
    36  H    0.162569
    37  H    0.161452
    38  H    0.165903
    39  H    0.157545
    40  N   -0.570004
    41  C   -0.072968
    42  C    0.608328
    43  O   -0.522129
    44  C   -0.268030
    45  C   -0.307268
    46  C   -0.149307
    47  N   -0.608621
    48  C    0.790089
    49  N   -0.760630
    50  N   -0.775924
    51  O   -0.674955
    52  H    0.359782
    53  H    0.158262
    54  H    0.166388
    55  H    0.169148
    56  H    0.164394
    57  H    0.175541
    58  H    0.184977
    59  H    0.167153
    60  H    0.404132
    61  H    0.379698
    62  H    0.382435
    63  H    0.366993
    64  H    0.419752
 Sum of Mulliken charges =   1.00000

 Dipole moment (field-independent basis, Debye):
    X=            172.6034    Y=           -146.9754    Z=            202.6205  Tot=            304.0539
 Quadrupole moment (field-independent basis, Debye-Ang):
   XX=           6126.3947   YY=           4340.9163   ZZ=           8394.0024
   XY=          -5285.6721   XZ=           7256.3015   YZ=          -6200.1341

 Normal termination of Gaussian 16 at Tue May 31 11:32:10 2022.
