 Gaussian 16, Revision C.01,
 Gaussian 16:  ES64L-G16RevC.01  3-Jul-2019

 ----------------------------------------------------------------------
 # B3LYP/6-31G* empiricaldispersion=gd3 guess=read geom=check nosymm in
 tegral(ultrafinegrid)
 ----------------------------------------------------------------------

 ------------------------------------------------------
 Candidate Structure: Conf:123 Charge calc in gas phase
 ------------------------------------------------------
 Structure from the checkpoint file:  "conf-123.chk"
 Charge =  1 Multiplicity = 1

                          Input orientation:
 ---------------------------------------------------------------------
 Center     Atomic      Atomic             Coordinates (Angstroms)
 Number     Number       Type             X           Y           Z
 ---------------------------------------------------------------------
      1          7           0       34.912355  -32.157780   44.405123
      2          6           0       34.544575  -30.803116   44.938992
      3          6           0       34.950082  -29.829952   43.810128
      4          8           0       35.927114  -30.101081   43.112682
      5          6           0       33.059583  -30.795860   45.356156
      6          6           0       32.706998  -31.968741   46.245321
      7          6           0       32.182552  -33.146773   45.686239
      8          6           0       32.944808  -31.933988   47.624518
      9          6           0       31.903531  -34.255069   46.478586
     10          6           0       32.666212  -33.036331   48.430378
     11          6           0       32.142965  -34.203878   47.858648
     12          8           0       31.846865  -35.317391   48.578239
     13          1           0       34.860368  -32.877255   45.129004
     14          1           0       35.182482  -30.608458   45.808473
     15          1           0       32.863284  -29.852798   45.881314
     16          1           0       32.448028  -30.817346   44.448788
     17          1           0       31.987839  -33.190489   44.616533
     18          1           0       33.341696  -31.031005   48.083963
     19          1           0       31.490261  -35.163632   46.053331
     20          1           0       32.846997  -32.988196   49.501875
     21          1           0       32.023840  -35.163838   49.519812
     22          1           0       34.214183  -32.373442   43.581446
     23          1           0       35.843961  -32.116075   43.976081
     24          7           0       34.186253  -28.732217   43.608498
     25          6           0       34.425272  -27.859518   42.449983
     26          6           0       34.421671  -28.694362   41.148571
     27          8           0       35.252664  -28.481500   40.268374
     28          6           0       33.433774  -26.670914   42.441317
     29          6           0       31.962648  -27.099496   42.313286
     30          6           0       33.812410  -25.678069   41.333015
     31          1           0       33.385117  -28.554839   44.197484
     32          1           0       35.445770  -27.472057   42.515351
     33          1           0       33.565324  -26.166542   43.409858
     34          1           0       31.646073  -27.796716   43.100365
     35          1           0       31.311770  -26.222813   42.385089
     36          1           0       31.775373  -27.580900   41.347787
     37          1           0       33.713174  -26.135117   40.342686
     38          1           0       34.846465  -25.333877   41.439592
     39          1           0       33.156147  -24.803089   41.370899
     40          7           0       33.462681  -29.669372   41.058396
     41          6           0       33.812355  -30.902815   40.353662
     42          6           0       34.108822  -31.993263   41.403243
     43          8           0       35.132727  -32.703494   41.256492
     44          6           0       32.822222  -31.307773   39.257556
     45          6           0       33.210074  -32.581196   38.469524
     46          6           0       34.701041  -32.783106   38.099081
     47          7           0       35.396931  -31.549204   37.692966
     48          6           0       36.366556  -30.923347   38.373982
     49          7           0       36.875102  -31.426850   39.500028
     50          7           0       36.885086  -29.758933   37.897293
     51          8           0       33.316839  -32.040740   42.402166
     52          1           0       32.908750  -29.837403   41.890474
     53          1           0       34.746323  -30.656176   39.879197
     54          1           0       32.741996  -30.452700   38.574953
     55          1           0       31.825418  -31.457250   39.687803
     56          1           0       32.602414  -32.606697   37.557253
     57          1           0       32.929254  -33.471655   39.044124
     58          1           0       34.780825  -33.500552   37.276376
     59          1           0       35.234533  -33.202815   38.948873
     60          1           0       34.978997  -31.030378   36.931395
     61          1           0       37.611017  -30.893148   39.944023
     62          1           0       36.301482  -32.017342   40.141733
     63          1           0       36.998780  -29.033725   38.600047
     64          1           0       36.525308  -29.406470   37.019599
 ---------------------------------------------------------------------

 SCF Done:  E(RB3LYP) =  -1486.59060222     A.U. after    3 cycles

 Alpha  occ. eigenvalues --  -19.26207 -19.24065 -19.22010 -19.21247 -19.20788
 Alpha  occ. eigenvalues --  -14.53005 -14.50624 -14.48850 -14.48528 -14.47773
 Alpha  occ. eigenvalues --  -14.45151 -10.45630 -10.41433 -10.38883 -10.38364
 Alpha  occ. eigenvalues --  -10.37240 -10.33994 -10.33757 -10.33712 -10.31526
 Alpha  occ. eigenvalues --  -10.31284 -10.30041 -10.29413 -10.29042 -10.28809
 Alpha  occ. eigenvalues --  -10.28777 -10.28364 -10.28078 -10.27439 -10.27355
 Alpha  occ. eigenvalues --  -10.26298  -1.16529  -1.14516  -1.14447  -1.14036
 Alpha  occ. eigenvalues --   -1.13365  -1.08524  -1.05328  -1.04811  -1.03914
 Alpha  occ. eigenvalues --   -1.01754  -1.01461  -0.94987  -0.91454  -0.89851
 Alpha  occ. eigenvalues --   -0.89269  -0.84761  -0.83990  -0.83764  -0.80745
 Alpha  occ. eigenvalues --   -0.78250  -0.77784  -0.76455  -0.75729  -0.71885
 Alpha  occ. eigenvalues --   -0.71572  -0.71234  -0.70413  -0.69365  -0.68368
 Alpha  occ. eigenvalues --   -0.68088  -0.67394  -0.66926  -0.66484  -0.64501
 Alpha  occ. eigenvalues --   -0.63292  -0.62920  -0.62354  -0.61451  -0.59199
 Alpha  occ. eigenvalues --   -0.58737  -0.58327  -0.58175  -0.57743  -0.56924
 Alpha  occ. eigenvalues --   -0.56611  -0.55991  -0.55533  -0.54624  -0.54119
 Alpha  occ. eigenvalues --   -0.53187  -0.52860  -0.52851  -0.52446  -0.51946
 Alpha  occ. eigenvalues --   -0.51572  -0.51328  -0.51115  -0.49924  -0.49290
 Alpha  occ. eigenvalues --   -0.49257  -0.48972  -0.48536  -0.48155  -0.47530
 Alpha  occ. eigenvalues --   -0.47093  -0.46338  -0.45687  -0.45306  -0.44129
 Alpha  occ. eigenvalues --   -0.44005  -0.43766  -0.43087  -0.42990  -0.42649
 Alpha  occ. eigenvalues --   -0.42130  -0.40421  -0.38892  -0.38745  -0.38089
 Alpha  occ. eigenvalues --   -0.37549  -0.36569  -0.36005  -0.34760  -0.34506
 Alpha  occ. eigenvalues --   -0.33456  -0.30943
 Alpha virt. eigenvalues --   -0.11043  -0.10933  -0.09662  -0.08905  -0.08491
 Alpha virt. eigenvalues --   -0.06676  -0.05533  -0.04308  -0.03017  -0.01192
 Alpha virt. eigenvalues --   -0.00912  -0.00809  -0.00343  -0.00058   0.01017

 Mulliken charges:
               1
     1  N   -0.764921
     2  C   -0.096841
     3  C    0.657402
     4  O   -0.535404
     5  C   -0.399026
     6  C    0.121777
     7  C   -0.220194
     8  C   -0.189965
     9  C   -0.156087
    10  C   -0.189388
    11  C    0.358881
    12  O   -0.624626
    13  H    0.394048
    14  H    0.209317
    15  H    0.167572
    16  H    0.197862
    17  H    0.168575
    18  H    0.137542
    19  H    0.165962
    20  H    0.144642
    21  H    0.419632
    22  H    0.451844
    23  H    0.406589
    24  N   -0.653266
    25  C   -0.006287
    26  C    0.615410
    27  O   -0.554831
    28  C   -0.127333
    29  C   -0.472200
    30  C   -0.451234
    31  H    0.353615
    32  H    0.193898
    33  H    0.151798
    34  H    0.128259
    35  H    0.177494
    36  H    0.171678
    37  H    0.164942
    38  H    0.160846
    39  H    0.165472
    40  N   -0.587809
    41  C   -0.064905
    42  C    0.642804
    43  O   -0.582852
    44  C   -0.266358
    45  C   -0.299898
    46  C   -0.179044
    47  N   -0.568033
    48  C    0.723065
    49  N   -0.743881
    50  N   -0.741174
    51  O   -0.636658
    52  H    0.339544
    53  H    0.158580
    54  H    0.146467
    55  H    0.169696
    56  H    0.162703
    57  H    0.183528
    58  H    0.190385
    59  H    0.215056
    60  H    0.352437
    61  H    0.369971
    62  H    0.424465
    63  H    0.391683
    64  H    0.356773
 Sum of Mulliken charges =   1.00000

 Dipole moment (field-independent basis, Debye):
    X=            165.8711    Y=           -146.4022    Z=            202.4393  Tot=            299.8808
 Quadrupole moment (field-independent basis, Debye-Ang):
   XX=           5556.3262   YY=           4304.3249   ZZ=           8466.4077
   XY=          -5058.0873   XZ=           6977.4127   YZ=          -6182.3108

 Normal termination of Gaussian 16 at Tue May 31 11:32:11 2022.
