 Gaussian 16, Revision C.01,
 Gaussian 16:  ES64L-G16RevC.01  3-Jul-2019

 ----------------------------------------------------------------------
 # B3LYP/6-31G* empiricaldispersion=gd3 guess=read geom=check nosymm in
 tegral(ultrafinegrid)
 ----------------------------------------------------------------------

 ------------------------------------------------------
 Candidate Structure: Conf:727 Charge calc in gas phase
 ------------------------------------------------------
 Structure from the checkpoint file:  "conf-727.chk"
 Charge =  1 Multiplicity = 1

                          Input orientation:
 ---------------------------------------------------------------------
 Center     Atomic      Atomic             Coordinates (Angstroms)
 Number     Number       Type             X           Y           Z
 ---------------------------------------------------------------------
      1          7           0       32.980534  -28.553941   43.724962
      2          6           0       32.019226  -29.271788   42.820610
      3          6           0       32.848230  -29.671803   41.585512
      4          8           0       33.806139  -28.979925   41.248692
      5          6           0       31.302159  -30.416397   43.569960
      6          6           0       30.827918  -29.996421   44.943962
      7          6           0       31.601662  -30.307615   46.071790
      8          6           0       29.653405  -29.248006   45.119687
      9          6           0       31.208467  -29.888520   47.342650
     10          6           0       29.251719  -28.826429   46.381996
     11          6           0       30.030350  -29.148512   47.502714
     12          8           0       29.584849  -28.708560   48.710279
     13          1           0       33.890125  -29.175468   44.006635
     14          1           0       31.278039  -28.528934   42.500573
     15          1           0       30.447899  -30.723084   42.952264
     16          1           0       31.992875  -31.256865   43.666178
     17          1           0       32.515677  -30.883344   45.942988
     18          1           0       29.034146  -29.004177   44.258434
     19          1           0       31.813272  -30.143639   48.210359
     20          1           0       28.338427  -28.258675   46.526090
     21          1           0       30.178246  -29.016815   49.413230
     22          1           0       33.374830  -27.751934   43.227080
     23          1           0       32.493815  -28.247490   44.571916
     24          7           0       32.496160  -30.799632   40.915584
     25          6           0       33.355499  -31.297692   39.836909
     26          6           0       34.792437  -31.489693   40.367641
     27          8           0       35.760428  -31.108754   39.684171
     28          6           0       32.752515  -32.556867   39.167301
     29          6           0       32.604773  -33.757243   40.116750
     30          6           0       33.576253  -32.940071   37.929450
     31          1           0       31.742871  -31.379860   41.256759
     32          1           0       33.452354  -30.509990   39.084763
     33          1           0       31.749807  -32.256469   38.831864
     34          1           0       32.024278  -33.528808   41.020008
     35          1           0       32.085879  -34.573230   39.604751
     36          1           0       33.583261  -34.133854   40.434282
     37          1           0       34.594213  -33.235677   38.207212
     38          1           0       33.651882  -32.106774   37.223186
     39          1           0       33.109701  -33.784102   37.412273
     40          7           0       34.916764  -32.069512   41.576917
     41          6           0       35.895985  -31.643892   42.602891
     42          6           0       34.978978  -31.046566   43.711815
     43          8           0       35.174397  -29.824412   44.001586
     44          6           0       36.756027  -32.805365   43.109823
     45          6           0       37.613111  -33.518936   42.051847
     46          6           0       38.792753  -32.708686   41.491914
     47          7           0       38.322241  -31.627264   40.615321
     48          6           0       38.802302  -30.389573   40.557572
     49          7           0       40.045902  -30.100388   40.987252
     50          7           0       38.019002  -29.405216   40.086677
     51          8           0       34.058988  -31.787202   44.115850
     52          1           0       34.056397  -32.362242   42.033325
     53          1           0       36.492575  -30.835237   42.185042
     54          1           0       36.079614  -33.533453   43.571942
     55          1           0       37.399375  -32.424675   43.914682
     56          1           0       36.978040  -33.855063   41.221042
     57          1           0       38.036453  -34.426705   42.496900
     58          1           0       39.462490  -33.367934   40.926699
     59          1           0       39.366057  -32.270741   42.317992
     60          1           0       37.387255  -31.724523   40.194075
     61          1           0       40.341428  -29.145360   41.124671
     62          1           0       40.719461  -30.830104   41.162729
     63          1           0       38.421360  -28.553574   39.723576
     64          1           0       37.052742  -29.629390   39.847376
 ---------------------------------------------------------------------

 SCF Done:  E(RB3LYP) =  -1486.59129477     A.U. after    2 cycles

 Alpha  occ. eigenvalues --  -19.25171 -19.23908 -19.23273 -19.19241 -19.18555
 Alpha  occ. eigenvalues --  -14.51492 -14.50936 -14.49337 -14.49089 -14.47870
 Alpha  occ. eigenvalues --  -14.46171 -10.46343 -10.40576 -10.40310 -10.36640
 Alpha  occ. eigenvalues --  -10.36075 -10.34705 -10.33997 -10.32819 -10.31881
 Alpha  occ. eigenvalues --  -10.30261 -10.29644 -10.29343 -10.28291 -10.27641
 Alpha  occ. eigenvalues --  -10.27577 -10.27404 -10.26896 -10.26728 -10.26650
 Alpha  occ. eigenvalues --  -10.26358  -1.15925  -1.15134  -1.14450  -1.13367
 Alpha  occ. eigenvalues --   -1.12524  -1.06948  -1.04628  -1.04172  -1.03583
 Alpha  occ. eigenvalues --   -1.03048  -1.02144  -0.93641  -0.91342  -0.90169
 Alpha  occ. eigenvalues --   -0.88251  -0.85159  -0.83024  -0.82648  -0.80603
 Alpha  occ. eigenvalues --   -0.78669  -0.77962  -0.76271  -0.75358  -0.72496
 Alpha  occ. eigenvalues --   -0.71565  -0.70401  -0.70024  -0.68774  -0.68243
 Alpha  occ. eigenvalues --   -0.67927  -0.67128  -0.66837  -0.65082  -0.64190
 Alpha  occ. eigenvalues --   -0.63615  -0.63167  -0.62176  -0.61881  -0.59821
 Alpha  occ. eigenvalues --   -0.59328  -0.58387  -0.57730  -0.57262  -0.56362
 Alpha  occ. eigenvalues --   -0.56061  -0.55033  -0.54899  -0.54373  -0.53943
 Alpha  occ. eigenvalues --   -0.53444  -0.52939  -0.52326  -0.51736  -0.50944
 Alpha  occ. eigenvalues --   -0.50692  -0.50340  -0.49912  -0.49628  -0.49113
 Alpha  occ. eigenvalues --   -0.48744  -0.48435  -0.47969  -0.47804  -0.47223
 Alpha  occ. eigenvalues --   -0.46634  -0.45603  -0.44961  -0.44777  -0.44065
 Alpha  occ. eigenvalues --   -0.43976  -0.43852  -0.43606  -0.43259  -0.41464
 Alpha  occ. eigenvalues --   -0.41418  -0.40889  -0.39295  -0.38749  -0.37759
 Alpha  occ. eigenvalues --   -0.37091  -0.36210  -0.34726  -0.33252  -0.33058
 Alpha  occ. eigenvalues --   -0.32445  -0.29783
 Alpha virt. eigenvalues --   -0.11211  -0.10593  -0.09583  -0.08413  -0.07286
 Alpha virt. eigenvalues --   -0.06307  -0.04524  -0.03626  -0.02767  -0.02339
 Alpha virt. eigenvalues --   -0.00891  -0.00630   0.00037   0.00552   0.00939

 Mulliken charges:
               1
     1  N   -0.766947
     2  C   -0.100117
     3  C    0.656791
     4  O   -0.529806
     5  C   -0.400446
     6  C    0.098391
     7  C   -0.213866
     8  C   -0.190995
     9  C   -0.193753
    10  C   -0.157005
    11  C    0.357418
    12  O   -0.627784
    13  H    0.457195
    14  H    0.203309
    15  H    0.158238
    16  H    0.222332
    17  H    0.187152
    18  H    0.132921
    19  H    0.140874
    20  H    0.161070
    21  H    0.417413
    22  H    0.391997
    23  H    0.389210
    24  N   -0.650440
    25  C   -0.011485
    26  C    0.626573
    27  O   -0.586728
    28  C   -0.123987
    29  C   -0.478367
    30  C   -0.450685
    31  H    0.355159
    32  H    0.196884
    33  H    0.158576
    34  H    0.141486
    35  H    0.180332
    36  H    0.163604
    37  H    0.156493
    38  H    0.163072
    39  H    0.168349
    40  N   -0.582236
    41  C   -0.040978
    42  C    0.581225
    43  O   -0.613673
    44  C   -0.269019
    45  C   -0.308528
    46  C   -0.149249
    47  N   -0.609631
    48  C    0.788516
    49  N   -0.761302
    50  N   -0.776225
    51  O   -0.553623
    52  H    0.355050
    53  H    0.155987
    54  H    0.177889
    55  H    0.157397
    56  H    0.165475
    57  H    0.175700
    58  H    0.183929
    59  H    0.166866
    60  H    0.405083
    61  H    0.378231
    62  H    0.382855
    63  H    0.365375
    64  H    0.422455
 Sum of Mulliken charges =   1.00000

 Dipole moment (field-independent basis, Debye):
    X=            172.7670    Y=           -145.8080    Z=            199.7745  Tot=            301.6924
 Quadrupole moment (field-independent basis, Debye-Ang):
   XX=           6121.6753   YY=           4269.9981   ZZ=           8160.4255
   XY=          -5249.9786   XZ=           7169.9999   YZ=          -6053.7228

 Normal termination of Gaussian 16 at Tue May 31 11:32:00 2022.
