 Gaussian 16, Revision C.01,
 Gaussian 16:  ES64L-G16RevC.01  3-Jul-2019

 ----------------------------------------------------------------------
 # B3LYP/6-31G* empiricaldispersion=gd3 guess=read geom=check nosymm in
 tegral(ultrafinegrid)
 ----------------------------------------------------------------------

 ------------------------------------------------------
 Candidate Structure: Conf:621 Charge calc in gas phase
 ------------------------------------------------------
 Structure from the checkpoint file:  "conf-621.chk"
 Charge =  1 Multiplicity = 1

                          Input orientation:
 ---------------------------------------------------------------------
 Center     Atomic      Atomic             Coordinates (Angstroms)
 Number     Number       Type             X           Y           Z
 ---------------------------------------------------------------------
      1          7           0       32.150588  -31.226044   44.388306
      2          6           0       31.599359  -30.484972   43.210079
      3          6           0       32.742434  -29.538234   42.784992
      4          8           0       33.436433  -29.005730   43.647770
      5          6           0       31.111353  -31.492440   42.147989
      6          6           0       30.185683  -32.540628   42.726426
      7          6           0       30.700418  -33.771144   43.169286
      8          6           0       28.816559  -32.295978   42.884274
      9          6           0       29.875324  -34.727420   43.751407
     10          6           0       27.977827  -33.247169   43.462273
     11          6           0       28.505822  -34.469379   43.898893
     12          8           0       27.751228  -35.444297   44.471249
     13          1           0       31.435466  -31.795849   44.843668
     14          1           0       30.761191  -29.868385   43.555087
     15          1           0       30.594128  -30.928285   41.361639
     16          1           0       31.987850  -31.976028   41.704730
     17          1           0       31.762267  -33.979149   43.053267
     18          1           0       28.391107  -31.354693   42.542370
     19          1           0       30.267105  -35.681367   44.088425
     20          1           0       26.914361  -33.044407   43.568083
     21          1           0       26.821212  -35.169781   44.503207
     22          1           0       33.012626  -31.864456   43.972257
     23          1           0       32.573708  -30.568310   45.050185
     24          7           0       32.967755  -29.358976   41.459000
     25          6           0       34.130293  -28.594717   41.000783
     26          6           0       35.429491  -29.163135   41.604339
     27          8           0       36.357499  -28.380225   41.890054
     28          6           0       34.159143  -28.514197   39.452676
     29          6           0       34.317725  -29.886421   38.777676
     30          6           0       35.250224  -27.542228   38.982436
     31          1           0       32.389872  -29.826548   40.775849
     32          1           0       34.066008  -27.581490   41.408515
     33          1           0       33.184588  -28.094862   39.163592
     34          1           0       33.541287  -30.604232   39.071348
     35          1           0       34.257960  -29.776849   37.690600
     36          1           0       35.288157  -30.334110   39.018106
     37          1           0       35.124856  -26.551199   39.430812
     38          1           0       35.210347  -27.431984   37.894305
     39          1           0       36.247539  -27.905106   39.251682
     40          7           0       35.499832  -30.495055   41.764063
     41          6           0       36.222454  -31.141643   42.871922
     42          6           0       35.153410  -31.810736   43.780460
     43          8           0       35.360320  -31.875390   44.986058
     44          6           0       37.266507  -32.160383   42.392586
     45          6           0       38.410696  -31.595867   41.534784
     46          6           0       39.423743  -30.710604   42.277452
     47          7           0       38.835415  -29.409529   42.624227
     48          6           0       38.987768  -28.750620   43.768599
     49          7           0       40.041938  -28.974985   44.576444
     50          7           0       38.060607  -27.848656   44.129422
     51          8           0       34.086536  -32.202499   43.145183
     52          1           0       34.645790  -31.015728   41.573289
     53          1           0       36.682280  -30.362944   43.477890
     54          1           0       36.744343  -32.931884   41.813700
     55          1           0       37.673151  -32.658095   43.282028
     56          1           0       38.000763  -31.040107   40.680325
     57          1           0       38.975910  -32.432886   41.108948
     58          1           0       40.309749  -30.551653   41.651367
     59          1           0       39.744617  -31.212792   43.198150
     60          1           0       38.023179  -29.094492   42.075530
     61          1           0       40.025029  -28.682757   45.542511
     62          1           0       40.812936  -29.552125   44.277303
     63          1           0       38.279586  -27.117786   44.790400
     64          1           0       37.230660  -27.750378   43.544692
 ---------------------------------------------------------------------

 SCF Done:  E(RB3LYP) =  -1486.59417703     A.U. after    3 cycles

 Alpha  occ. eigenvalues --  -19.25569 -19.23682 -19.23283 -19.19779 -19.17779
 Alpha  occ. eigenvalues --  -14.50765 -14.50695 -14.49228 -14.49068 -14.47999
 Alpha  occ. eigenvalues --  -14.45856 -10.46240 -10.40674 -10.40128 -10.36277
 Alpha  occ. eigenvalues --  -10.36031 -10.34697 -10.34040 -10.33296 -10.31680
 Alpha  occ. eigenvalues --  -10.30431 -10.30279 -10.29699 -10.28449 -10.28296
 Alpha  occ. eigenvalues --  -10.28054 -10.27639 -10.27536 -10.27394 -10.26738
 Alpha  occ. eigenvalues --  -10.26545  -1.15882  -1.15034  -1.14302  -1.13790
 Alpha  occ. eigenvalues --   -1.12237  -1.06555  -1.04749  -1.04103  -1.03475
 Alpha  occ. eigenvalues --   -1.02934  -1.01875  -0.94210  -0.91347  -0.90195
 Alpha  occ. eigenvalues --   -0.88499  -0.85178  -0.83283  -0.83186  -0.80671
 Alpha  occ. eigenvalues --   -0.78606  -0.77969  -0.76184  -0.75673  -0.72453
 Alpha  occ. eigenvalues --   -0.71552  -0.70840  -0.70307  -0.68578  -0.68196
 Alpha  occ. eigenvalues --   -0.67824  -0.67514  -0.66695  -0.65890  -0.63942
 Alpha  occ. eigenvalues --   -0.63465  -0.63042  -0.62569  -0.62021  -0.59711
 Alpha  occ. eigenvalues --   -0.59429  -0.58052  -0.57728  -0.57265  -0.56969
 Alpha  occ. eigenvalues --   -0.56030  -0.55153  -0.54623  -0.54289  -0.53954
 Alpha  occ. eigenvalues --   -0.53565  -0.53024  -0.52272  -0.52127  -0.51270
 Alpha  occ. eigenvalues --   -0.50629  -0.50587  -0.49924  -0.49760  -0.49052
 Alpha  occ. eigenvalues --   -0.48609  -0.48426  -0.48268  -0.48121  -0.47134
 Alpha  occ. eigenvalues --   -0.46683  -0.45834  -0.45213  -0.44795  -0.44586
 Alpha  occ. eigenvalues --   -0.44055  -0.43930  -0.43458  -0.43071  -0.41974
 Alpha  occ. eigenvalues --   -0.41393  -0.41313  -0.39146  -0.38592  -0.37759
 Alpha  occ. eigenvalues --   -0.37239  -0.36189  -0.34890  -0.34448  -0.33787
 Alpha  occ. eigenvalues --   -0.31129  -0.30238
 Alpha virt. eigenvalues --   -0.10626  -0.10475  -0.09525  -0.08946  -0.07798
 Alpha virt. eigenvalues --   -0.06120  -0.03895  -0.03672  -0.02564  -0.01705
 Alpha virt. eigenvalues --   -0.01200  -0.00487  -0.00221   0.00460   0.00755

 Mulliken charges:
               1
     1  N   -0.774062
     2  C   -0.087273
     3  C    0.652602
     4  O   -0.528587
     5  C   -0.399035
     6  C    0.124240
     7  C   -0.218091
     8  C   -0.188213
     9  C   -0.155498
    10  C   -0.189764
    11  C    0.358315
    12  O   -0.625911
    13  H    0.387457
    14  H    0.203940
    15  H    0.164265
    16  H    0.193687
    17  H    0.167137
    18  H    0.135770
    19  H    0.165282
    20  H    0.142162
    21  H    0.418436
    22  H    0.464362
    23  H    0.401252
    24  N   -0.656967
    25  C    0.001709
    26  C    0.627017
    27  O   -0.594164
    28  C   -0.129121
    29  C   -0.469460
    30  C   -0.447850
    31  H    0.354788
    32  H    0.195600
    33  H    0.155146
    34  H    0.135893
    35  H    0.177756
    36  H    0.162664
    37  H    0.161323
    38  H    0.165723
    39  H    0.157595
    40  N   -0.570187
    41  C   -0.073057
    42  C    0.608829
    43  O   -0.520653
    44  C   -0.268288
    45  C   -0.307291
    46  C   -0.149425
    47  N   -0.608515
    48  C    0.790202
    49  N   -0.760620
    50  N   -0.775945
    51  O   -0.674979
    52  H    0.359795
    53  H    0.158286
    54  H    0.167188
    55  H    0.169305
    56  H    0.164275
    57  H    0.175827
    58  H    0.185042
    59  H    0.167229
    60  H    0.403755
    61  H    0.379737
    62  H    0.382468
    63  H    0.366993
    64  H    0.419902
 Sum of Mulliken charges =   1.00000

 Dipole moment (field-independent basis, Debye):
    X=            169.7981    Y=           -142.2422    Z=            205.3450  Tot=            302.0444
 Quadrupole moment (field-independent basis, Debye-Ang):
   XX=           5960.3378   YY=           4040.9445   ZZ=           8620.0423
   XY=          -5003.3487   XZ=           7269.1936   YZ=          -6074.6813

 Normal termination of Gaussian 16 at Tue May 31 11:32:10 2022.
