 Gaussian 16, Revision C.01,
 Gaussian 16:  ES64L-G16RevC.01  3-Jul-2019

 ----------------------------------------------------------------------
 # B3LYP/6-31G* empiricaldispersion=gd3 guess=read geom=check nosymm in
 tegral(ultrafinegrid)
 ----------------------------------------------------------------------

 ------------------------------------------------------
 Candidate Structure: Conf:302 Charge calc in gas phase
 ------------------------------------------------------
 Structure from the checkpoint file:  "conf-302.chk"
 Charge =  1 Multiplicity = 1

                          Input orientation:
 ---------------------------------------------------------------------
 Center     Atomic      Atomic             Coordinates (Angstroms)
 Number     Number       Type             X           Y           Z
 ---------------------------------------------------------------------
      1          7           0       32.237442  -31.028291   40.875992
      2          6           0       32.404094  -29.533689   40.863778
      3          6           0       32.362678  -29.154084   42.361349
      4          8           0       31.673778  -29.833788   43.120210
      5          6           0       33.678168  -29.155005   40.083373
      6          6           0       33.746260  -29.835787   38.733442
      7          6           0       34.462182  -31.030909   38.580101
      8          6           0       33.051863  -29.325958   37.625149
      9          6           0       34.490668  -31.697976   37.355209
     10          6           0       33.073609  -29.979449   36.398979
     11          6           0       33.797678  -31.171981   36.257871
     12          8           0       33.780860  -31.761987   35.033500
     13          1           0       32.082839  -31.399421   39.936381
     14          1           0       31.520194  -29.113826   40.370684
     15          1           0       33.680058  -28.065382   39.956104
     16          1           0       34.547777  -29.430868   40.686689
     17          1           0       35.003680  -31.443522   39.428879
     18          1           0       32.496159  -28.395093   37.718472
     19          1           0       35.058466  -32.619946   37.250162
     20          1           0       32.548312  -29.582574   35.536641
     21          1           0       34.339719  -32.555024   35.038504
     22          1           0       33.149134  -31.441637   41.319515
     23          1           0       31.468639  -31.263387   41.514961
     24          7           0       33.120651  -28.116385   42.776070
     25          6           0       33.275481  -27.828840   44.210147
     26          6           0       33.820588  -29.065598   44.967501
     27          8           0       33.447496  -29.310985   46.103796
     28          6           0       34.123443  -26.551020   44.419951
     29          6           0       35.566796  -26.690909   43.907848
     30          6           0       34.105097  -26.137906   45.898585
     31          1           0       33.679630  -27.599942   42.111896
     32          1           0       32.280534  -27.673348   44.635463
     33          1           0       33.624122  -25.761035   43.839418
     34          1           0       35.623457  -26.956167   42.843342
     35          1           0       36.099979  -25.742720   44.027973
     36          1           0       36.108751  -27.459830   44.468032
     37          1           0       34.568685  -26.903473   46.528438
     38          1           0       33.081696  -25.989694   46.258420
     39          1           0       34.654498  -25.200670   46.033572
     40          7           0       34.741974  -29.822867   44.286419
     41          6           0       34.838041  -31.258516   44.538794
     42          6           0       34.231632  -31.985944   43.313577
     43          8           0       33.600828  -33.058970   43.475253
     44          6           0       36.289188  -31.696808   44.854908
     45          6           0       36.381726  -32.973825   45.709432
     46          6           0       36.119176  -34.287947   44.941330
     47          7           0       35.518960  -35.329154   45.796693
     48          6           0       34.261954  -35.291470   46.260743
     49          7           0       33.378977  -34.417376   45.792643
     50          7           0       33.903720  -36.178279   47.220021
     51          8           0       34.411894  -31.418333   42.186477
     52          1           0       34.862283  -29.605466   43.304575
     53          1           0       34.210486  -31.459420   45.411189
     54          1           0       36.745417  -30.876551   45.417985
     55          1           0       36.864956  -31.797421   43.925149
     56          1           0       35.656931  -32.888139   46.527912
     57          1           0       37.368825  -33.030015   46.181736
     58          1           0       37.049354  -34.710264   44.554618
     59          1           0       35.463749  -34.133669   44.084104
     60          1           0       36.094525  -36.107948   46.083712
     61          1           0       32.487222  -34.323474   46.258818
     62          1           0       33.508651  -33.853312   44.908430
     63          1           0       32.942387  -36.251928   47.518409
     64          1           0       34.596886  -36.609761   47.813677
 ---------------------------------------------------------------------

 SCF Done:  E(RB3LYP) =  -1486.58624153     A.U. after    1 cycles

 Alpha  occ. eigenvalues --  -19.25994 -19.22700 -19.20714 -19.20472 -19.19061
 Alpha  occ. eigenvalues --  -14.52762 -14.50530 -14.50373 -14.48211 -14.47128
 Alpha  occ. eigenvalues --  -14.42928 -10.46276 -10.40130 -10.37988 -10.36493
 Alpha  occ. eigenvalues --  -10.36245 -10.33724 -10.33587 -10.31794 -10.30847
 Alpha  occ. eigenvalues --  -10.30619 -10.28900 -10.28674 -10.28327 -10.28263
 Alpha  occ. eigenvalues --  -10.28233 -10.27889 -10.27791 -10.27201 -10.25891
 Alpha  occ. eigenvalues --  -10.24406  -1.15256  -1.14695  -1.14218  -1.13794
 Alpha  occ. eigenvalues --   -1.10937  -1.08126  -1.04906  -1.04200  -1.03437
 Alpha  occ. eigenvalues --   -1.02192  -0.99648  -0.94637  -0.90203  -0.89420
 Alpha  occ. eigenvalues --   -0.88259  -0.83936  -0.83709  -0.83103  -0.79656
 Alpha  occ. eigenvalues --   -0.77939  -0.76432  -0.75751  -0.75172  -0.72133
 Alpha  occ. eigenvalues --   -0.71173  -0.70401  -0.69890  -0.68954  -0.68241
 Alpha  occ. eigenvalues --   -0.68135  -0.66698  -0.66131  -0.65397  -0.63969
 Alpha  occ. eigenvalues --   -0.63363  -0.62974  -0.62612  -0.61354  -0.59448
 Alpha  occ. eigenvalues --   -0.58436  -0.57307  -0.56940  -0.56750  -0.56191
 Alpha  occ. eigenvalues --   -0.55809  -0.55407  -0.54563  -0.53547  -0.53093
 Alpha  occ. eigenvalues --   -0.53010  -0.52175  -0.51796  -0.51298  -0.51041
 Alpha  occ. eigenvalues --   -0.50936  -0.50467  -0.49956  -0.49509  -0.48811
 Alpha  occ. eigenvalues --   -0.48351  -0.47677  -0.47114  -0.46377  -0.46151
 Alpha  occ. eigenvalues --   -0.46084  -0.45316  -0.45234  -0.44722  -0.44032
 Alpha  occ. eigenvalues --   -0.42859  -0.42389  -0.42098  -0.41779  -0.41538
 Alpha  occ. eigenvalues --   -0.41237  -0.40761  -0.38767  -0.37352  -0.36790
 Alpha  occ. eigenvalues --   -0.36409  -0.35981  -0.35385  -0.34212  -0.32199
 Alpha  occ. eigenvalues --   -0.32057  -0.30653
 Alpha virt. eigenvalues --   -0.10354  -0.09752  -0.09299  -0.08127  -0.07209
 Alpha virt. eigenvalues --   -0.06525  -0.04996  -0.03503  -0.03377  -0.02492
 Alpha virt. eigenvalues --   -0.02112  -0.00720   0.00097   0.00493   0.00760

 Mulliken charges:
               1
     1  N   -0.763733
     2  C   -0.101375
     3  C    0.659501
     4  O   -0.527936
     5  C   -0.396273
     6  C    0.119602
     7  C   -0.217559
     8  C   -0.190516
     9  C   -0.191237
    10  C   -0.154748
    11  C    0.357819
    12  O   -0.625260
    13  H    0.391930
    14  H    0.208973
    15  H    0.169428
    16  H    0.199216
    17  H    0.165003
    18  H    0.139157
    19  H    0.140423
    20  H    0.165801
    21  H    0.418064
    22  H    0.449921
    23  H    0.405384
    24  N   -0.655773
    25  C   -0.009273
    26  C    0.603331
    27  O   -0.508350
    28  C   -0.124909
    29  C   -0.467680
    30  C   -0.450139
    31  H    0.350686
    32  H    0.198619
    33  H    0.145707
    34  H    0.121632
    35  H    0.171838
    36  H    0.171463
    37  H    0.174453
    38  H    0.161002
    39  H    0.156806
    40  N   -0.596354
    41  C   -0.053788
    42  C    0.633438
    43  O   -0.582370
    44  C   -0.280926
    45  C   -0.281350
    46  C   -0.187363
    47  N   -0.598416
    48  C    0.803929
    49  N   -0.790708
    50  N   -0.769678
    51  O   -0.633343
    52  H    0.338452
    53  H    0.174053
    54  H    0.175951
    55  H    0.153426
    56  H    0.160390
    57  H    0.162717
    58  H    0.180414
    59  H    0.213024
    60  H    0.357168
    61  H    0.361072
    62  H    0.451287
    63  H    0.375177
    64  H    0.372800
 Sum of Mulliken charges =   1.00000

 Dipole moment (field-independent basis, Debye):
    X=            164.3371    Y=           -158.6440    Z=            208.4727  Tot=            309.2498
 Quadrupole moment (field-independent basis, Debye-Ang):
   XX=           5460.8084   YY=           5133.6098   ZZ=           8937.9299
   XY=          -5437.8103   XZ=           7146.5576   YZ=          -6936.9127

 Normal termination of Gaussian 16 at Tue May 31 11:31:48 2022.
