 Gaussian 16, Revision C.01,
 Gaussian 16:  ES64L-G16RevC.01  3-Jul-2019

 ----------------------------------------------------------------------
 # B3LYP/6-31G* empiricaldispersion=gd3 guess=read geom=check nosymm in
 tegral(ultrafinegrid)
 ----------------------------------------------------------------------

 ------------------------------------------------------
 Candidate Structure: Conf:964 Charge calc in gas phase
 ------------------------------------------------------
 Structure from the checkpoint file:  "conf-964.chk"
 Charge =  1 Multiplicity = 1

                          Input orientation:
 ---------------------------------------------------------------------
 Center     Atomic      Atomic             Coordinates (Angstroms)
 Number     Number       Type             X           Y           Z
 ---------------------------------------------------------------------
      1          7           0       -6.569673   20.195468   11.212627
      2          6           0       -6.121702   19.704598   12.568741
      3          6           0       -5.793781   18.209995   12.288542
      4          8           0       -5.472551   17.937818   11.124911
      5          6           0       -7.194332   20.085172   13.612271
      6          6           0       -7.685109   21.508184   13.427050
      7          6           0       -8.868900   21.759481   12.717222
      8          6           0       -6.936544   22.589845   13.911408
      9          6           0       -9.297924   23.071241   12.503983
     10          6           0       -7.365979   23.900403   13.697391
     11          6           0       -8.547991   24.142856   12.993177
     12          1           0       -6.642072   21.214656   11.182861
     13          1           0       -5.182887   20.223479   12.793882
     14          1           0       -8.030949   19.387128   13.525942
     15          1           0       -6.751192   19.980301   14.605276
     16          1           0       -9.448054   20.923454   12.331337
     17          1           0       -6.022169   22.406057   14.472380
     18          1           0      -10.220370   23.254541   11.960555
     19          1           0       -6.783088   24.730160   14.086452
     20          1           0       -8.884695   25.162496   12.831010
     21          1           0       -7.520707   19.738558   11.017900
     22          1           0       -5.918131   19.819262   10.511824
     23          7           0       -5.893150   17.237607   13.222487
     24          6           0       -5.704181   15.844133   12.741928
     25          6           0       -6.811098   15.451336   11.741450
     26          8           0       -6.582913   14.662173   10.837066
     27          6           0       -5.685222   15.007245   14.035285
     28          6           0       -6.496200   15.846869   15.031638
     29          6           0       -6.105836   17.290691   14.686560
     30          1           0       -4.775138   15.761673   12.176404
     31          1           0       -6.092677   14.005942   13.877342
     32          1           0       -4.651559   14.897121   14.380021
     33          1           0       -7.569546   15.703696   14.862324
     34          1           0       -6.283586   15.604583   16.075711
     35          1           0       -5.175536   17.587541   15.186703
     36          1           0       -6.888305   17.995583   14.957542
     37          7           0       -8.043989   16.028073   11.952327
     38          6           0       -8.910625   16.242291   10.800061
     39          6           0       -8.762774   17.708053   10.334011
     40          8           0       -8.629010   18.578808   11.235216
     41          6           0      -10.383549   15.900961   11.068739
     42          6           0      -11.254262   15.940043    9.800184
     43          6           0      -10.890256   14.868061    8.734871
     44          6           0      -10.332013   15.396723    7.410598
     45          7           0       -8.939668   15.953381    7.539154
     46          8           0       -8.799567   17.959697    9.090615
     47          1           0       -8.058160   16.812296   12.592818
     48          1           0       -8.522055   15.571429   10.034205
     49          1           0      -10.783295   16.603191   11.810542
     50          1           0      -10.420429   14.901505   11.518516
     51          1           0      -12.295966   15.794977   10.103149
     52          1           0      -11.209360   16.941755    9.355290
     53          1           0      -11.788922   14.302091    8.466366
     54          1           0      -10.195117   14.124682    9.149857
     55          1           0      -10.304646   14.601545    6.659505
     56          1           0      -10.951825   16.211052    7.024363
     57          1           0       -8.593560   16.274677    6.631219
     58          1           0       -8.286268   15.236136    7.868529
     59          1           0       -8.879969   16.859167    8.267682
 ---------------------------------------------------------------------

 SCF Done:  E(RB3LYP) =  -1300.62952576     A.U. after    3 cycles

 Alpha  occ. eigenvalues --  -19.23892 -19.23240 -19.22470 -19.21055 -14.54319
 Alpha  occ. eigenvalues --  -14.53099 -14.48758 -14.44873 -10.41556 -10.40024
 Alpha  occ. eigenvalues --  -10.38167 -10.38127 -10.35675 -10.33807 -10.33157
 Alpha  occ. eigenvalues --  -10.32508 -10.31500 -10.30430 -10.30072 -10.29516
 Alpha  occ. eigenvalues --  -10.29235 -10.28876 -10.28867 -10.28644 -10.28594
 Alpha  occ. eigenvalues --  -10.28450 -10.28399 -10.28214  -1.16788  -1.16025
 Alpha  occ. eigenvalues --   -1.12870  -1.09747  -1.08624  -1.06740  -1.05899
 Alpha  occ. eigenvalues --   -1.01595  -0.95595  -0.91481  -0.91082  -0.89559
 Alpha  occ. eigenvalues --   -0.87122  -0.85413  -0.84117  -0.83918  -0.80171
 Alpha  occ. eigenvalues --   -0.77944  -0.75472  -0.74520  -0.71206  -0.70643
 Alpha  occ. eigenvalues --   -0.70059  -0.69428  -0.68778  -0.68613  -0.67885
 Alpha  occ. eigenvalues --   -0.67428  -0.67007  -0.66632  -0.64178  -0.61568
 Alpha  occ. eigenvalues --   -0.60772  -0.60563  -0.59975  -0.59658  -0.57969
 Alpha  occ. eigenvalues --   -0.57324  -0.57000  -0.56096  -0.55636  -0.55065
 Alpha  occ. eigenvalues --   -0.54594  -0.54270  -0.53732  -0.53043  -0.52207
 Alpha  occ. eigenvalues --   -0.52060  -0.51661  -0.51407  -0.51158  -0.50790
 Alpha  occ. eigenvalues --   -0.49619  -0.49594  -0.49307  -0.48519  -0.48313
 Alpha  occ. eigenvalues --   -0.47418  -0.46877  -0.46008  -0.45371  -0.45143
 Alpha  occ. eigenvalues --   -0.44692  -0.44256  -0.43768  -0.43671  -0.43516
 Alpha  occ. eigenvalues --   -0.42876  -0.38997  -0.38293  -0.38147  -0.37614
 Alpha  occ. eigenvalues --   -0.36884  -0.34693  -0.34357  -0.34287  -0.33808
 Alpha virt. eigenvalues --   -0.11499  -0.10106  -0.09906  -0.08162  -0.07215
 Alpha virt. eigenvalues --   -0.06612  -0.04263  -0.02980  -0.01928  -0.01458
 Alpha virt. eigenvalues --   -0.00431  -0.00255   0.00753   0.01250   0.01451

 Mulliken charges:
               1
     1  N   -0.760202
     2  C   -0.099123
     3  C    0.638877
     4  O   -0.537132
     5  C   -0.383677
     6  C    0.108592
     7  C   -0.207100
     8  C   -0.185581
     9  C   -0.128033
    10  C   -0.127147
    11  C   -0.125353
    12  H    0.397906
    13  H    0.210708
    14  H    0.196884
    15  H    0.182921
    16  H    0.166028
    17  H    0.137123
    18  H    0.156837
    19  H    0.158761
    20  H    0.159684
    21  H    0.446700
    22  H    0.409992
    23  N   -0.492434
    24  C   -0.035230
    25  C    0.607781
    26  O   -0.512527
    27  C   -0.309596
    28  C   -0.307251
    29  C   -0.147102
    30  H    0.206817
    31  H    0.191157
    32  H    0.175618
    33  H    0.169802
    34  H    0.181369
    35  H    0.178525
    36  H    0.179473
    37  N   -0.591289
    38  C   -0.070606
    39  C    0.663676
    40  O   -0.612076
    41  C   -0.275181
    42  C   -0.296306
    43  C   -0.289816
    44  C   -0.181986
    45  N   -0.786337
    46  O   -0.606020
    47  H    0.337050
    48  H    0.143914
    49  H    0.158821
    50  H    0.167886
    51  H    0.171359
    52  H    0.162632
    53  H    0.185593
    54  H    0.167509
    55  H    0.193624
    56  H    0.201681
    57  H    0.388416
    58  H    0.393143
    59  H    0.470242
 Sum of Mulliken charges =   1.00000

 Dipole moment (field-independent basis, Debye):
    X=            -38.0197    Y=             87.3160    Z=             52.6755  Tot=            108.8315
 Quadrupole moment (field-independent basis, Debye-Ang):
   XX=            160.7588   YY=           1472.2646   ZZ=            474.1526
   XY=           -669.7753   XZ=           -387.5512   YZ=            979.2253

 Normal termination of Gaussian 16 at Wed May 25 08:32:20 2022.
