 Gaussian 16, Revision C.01,
 Gaussian 16:  ES64L-G16RevC.01  3-Jul-2019

 ----------------------------------------------------------------------
 # B3LYP/6-31G* empiricaldispersion=gd3 guess=read geom=check nosymm in
 tegral(ultrafinegrid)
 ----------------------------------------------------------------------

 -----------------------------------------------------
 Candidate Structure: Conf:14 Charge calc in gas phase
 -----------------------------------------------------
 Structure from the checkpoint file:  "conf-14.chk"
 Charge =  1 Multiplicity = 1

                          Input orientation:
 ---------------------------------------------------------------------
 Center     Atomic      Atomic             Coordinates (Angstroms)
 Number     Number       Type             X           Y           Z
 ---------------------------------------------------------------------
      1          7           0       -5.704154   19.458287   12.792882
      2          6           0       -5.613596   18.128335   13.490465
      3          6           0       -5.655509   17.126404   12.301293
      4          8           0       -5.199397   17.521777   11.225162
      5          6           0       -6.720186   18.051038   14.565362
      6          6           0       -6.789043   19.310819   15.406850
      7          6           0       -7.668330   20.347451   15.056477
      8          6           0       -5.944745   19.477511   16.512898
      9          6           0       -7.700279   21.525560   15.805604
     10          6           0       -5.979156   20.654857   17.261514
     11          6           0       -6.857981   21.681602   16.908600
     12          1           0       -5.498509   20.235685   13.422059
     13          1           0       -4.625393   18.072628   13.962393
     14          1           0       -7.676430   17.881658   14.065037
     15          1           0       -6.511904   17.195576   15.210832
     16          1           0       -8.311848   20.227426   14.187542
     17          1           0       -5.265327   18.676293   16.797727
     18          1           0       -8.387174   22.320126   15.527774
     19          1           0       -5.325243   20.767916   18.121621
     20          1           0       -6.887400   22.597092   17.492498
     21          1           0       -6.742033   19.520847   12.397575
     22          1           0       -5.074967   19.433471   11.981877
     23          7           0       -6.249087   15.915247   12.414743
     24          6           0       -6.481005   15.140706   11.169275
     25          6           0       -7.314250   15.911896   10.128151
     26          8           0       -7.171881   15.687940    8.934349
     27          6           0       -7.161247   13.857984   11.680274
     28          6           0       -6.566880   13.678448   13.083692
     29          6           0       -6.527488   15.114332   13.625030
     30          1           0       -5.526332   14.925536   10.681251
     31          1           0       -8.245168   14.012270   11.743697
     32          1           0       -6.977788   13.013883   11.012439
     33          1           0       -7.154335   13.015299   13.724506
     34          1           0       -5.549593   13.276377   13.016743
     35          1           0       -5.748914   15.260777   14.378261
     36          1           0       -7.493676   15.392552   14.061375
     37          7           0       -8.214304   16.804130   10.637628
     38          6           0       -8.596023   17.975666    9.857243
     39          6           0       -8.444146   19.256938   10.734455
     40          8           0       -8.065282   19.045743   11.956236
     41          6           0      -10.002405   17.829358    9.245470
     42          6           0      -10.267105   18.867579    8.149616
     43          6           0      -11.689977   18.768203    7.579669
     44          6           0      -11.895471   19.836550    6.518074
     45          7           0      -13.321518   19.771465    5.949780
     46          8           0       -8.672152   20.349772   10.213839
     47          1           0       -8.112054   17.051675   11.616525
     48          1           0       -7.879376   18.069723    9.031492
     49          1           0      -10.758735   17.910778   10.038605
     50          1           0      -10.075592   16.817560    8.828293
     51          1           0      -10.087975   19.864283    8.564514
     52          1           0       -9.540501   18.722959    7.337852
     53          1           0      -12.421035   18.904894    8.389562
     54          1           0      -11.858842   17.771169    7.147307
     55          1           0      -11.777182   20.846399    6.918242
     56          1           0      -11.227311   19.710882    5.662564
     57          1           0      -13.503545   18.849872    5.534060
     58          1           0      -13.491203   20.482454    5.228044
     59          1           0      -14.014006   19.908303    6.696110
 ---------------------------------------------------------------------

 SCF Done:  E(RB3LYP) =  -1300.57873316     A.U. after    1 cycles

 Alpha  occ. eigenvalues --  -19.20750 -19.16939 -19.16742 -19.15123 -14.64214
 Alpha  occ. eigenvalues --  -14.49884 -14.45427 -14.40208 -10.40745 -10.38186
 Alpha  occ. eigenvalues --  -10.34636 -10.34147 -10.33745 -10.32835 -10.31288
 Alpha  occ. eigenvalues --  -10.30083 -10.28232 -10.28012 -10.27804 -10.27331
 Alpha  occ. eigenvalues --  -10.27152 -10.26768 -10.26325 -10.26129 -10.26039
 Alpha  occ. eigenvalues --  -10.25922 -10.25830 -10.25737  -1.18034  -1.13347
 Alpha  occ. eigenvalues --   -1.09295  -1.08605  -1.05444  -1.02903  -1.00511
 Alpha  occ. eigenvalues --   -0.97120  -0.94035  -0.92874  -0.88518  -0.86597
 Alpha  occ. eigenvalues --   -0.86373  -0.83341  -0.81431  -0.81109  -0.80198
 Alpha  occ. eigenvalues --   -0.76817  -0.76672  -0.74992  -0.72939  -0.71922
 Alpha  occ. eigenvalues --   -0.68508  -0.68109  -0.67704  -0.66218  -0.65646
 Alpha  occ. eigenvalues --   -0.65330  -0.64962  -0.63811  -0.62787  -0.61540
 Alpha  occ. eigenvalues --   -0.60386  -0.58304  -0.57349  -0.57037  -0.56344
 Alpha  occ. eigenvalues --   -0.55233  -0.54663  -0.53964  -0.53350  -0.52700
 Alpha  occ. eigenvalues --   -0.52306  -0.51473  -0.50751  -0.50314  -0.49822
 Alpha  occ. eigenvalues --   -0.49444  -0.49233  -0.48860  -0.48299  -0.47877
 Alpha  occ. eigenvalues --   -0.47445  -0.46574  -0.46241  -0.45728  -0.45255
 Alpha  occ. eigenvalues --   -0.44688  -0.43786  -0.43548  -0.43176  -0.42648
 Alpha  occ. eigenvalues --   -0.42472  -0.41896  -0.41694  -0.41243  -0.40856
 Alpha  occ. eigenvalues --   -0.39568  -0.35038  -0.33741  -0.32527  -0.32179
 Alpha  occ. eigenvalues --   -0.31987  -0.31679  -0.31189  -0.30168  -0.28332
 Alpha virt. eigenvalues --   -0.14734  -0.08488  -0.08030  -0.07959  -0.07415
 Alpha virt. eigenvalues --   -0.07328  -0.05222  -0.03550  -0.01923  -0.01609
 Alpha virt. eigenvalues --   -0.01231  -0.00229   0.00082   0.01277   0.01898

 Mulliken charges:
               1
     1  N   -0.769069
     2  C   -0.091764
     3  C    0.617721
     4  O   -0.524226
     5  C   -0.372975
     6  C    0.110464
     7  C   -0.211497
     8  C   -0.183053
     9  C   -0.131050
    10  C   -0.128735
    11  C   -0.126333
    12  H    0.386432
    13  H    0.196347
    14  H    0.201420
    15  H    0.168460
    16  H    0.179325
    17  H    0.129649
    18  H    0.148732
    19  H    0.149009
    20  H    0.149111
    21  H    0.458984
    22  H    0.400651
    23  N   -0.487656
    24  C   -0.012834
    25  C    0.600228
    26  O   -0.522498
    27  C   -0.309979
    28  C   -0.300250
    29  C   -0.133238
    30  H    0.192959
    31  H    0.162057
    32  H    0.182883
    33  H    0.168700
    34  H    0.167907
    35  H    0.167096
    36  H    0.169098
    37  N   -0.610193
    38  C   -0.059711
    39  C    0.588959
    40  O   -0.663350
    41  C   -0.256523
    42  C   -0.286775
    43  C   -0.291146
    44  C   -0.207291
    45  N   -0.732169
    46  O   -0.526275
    47  H    0.346440
    48  H    0.177873
    49  H    0.136207
    50  H    0.157183
    51  H    0.205162
    52  H    0.152460
    53  H    0.162652
    54  H    0.161844
    55  H    0.234047
    56  H    0.228706
    57  H    0.425497
    58  H    0.428732
    59  H    0.425597
 Sum of Mulliken charges =   1.00000

 Dipole moment (field-independent basis, Debye):
    X=            -54.3508    Y=             91.5833    Z=             42.9927  Tot=            114.8472
 Quadrupole moment (field-independent basis, Debye-Ang):
   XX=            529.0537   YY=           1607.6605   ZZ=            330.5528
   XY=          -1052.1265   XZ=           -385.3525   YZ=            792.2906

 Normal termination of Gaussian 16 at Wed May 25 08:31:56 2022.
