 Gaussian 16, Revision C.01,
 Gaussian 16:  ES64L-G16RevC.01  3-Jul-2019

 ----------------------------------------------------------------------
 # B3LYP/6-31G* empiricaldispersion=gd3 guess=read geom=check nosymm in
 tegral(ultrafinegrid)
 ----------------------------------------------------------------------

 ------------------------------------------------------
 Candidate Structure: Conf:472 Charge calc in gas phase
 ------------------------------------------------------
 Structure from the checkpoint file:  "conf-472.chk"
 Charge =  1 Multiplicity = 1

                          Input orientation:
 ---------------------------------------------------------------------
 Center     Atomic      Atomic             Coordinates (Angstroms)
 Number     Number       Type             X           Y           Z
 ---------------------------------------------------------------------
      1          7           0       -9.778496   18.680317   10.360893
      2          6           0       -9.386342   19.881730   11.184516
      3          6           0       -7.850785   19.955778   10.971216
      4          8           0       -7.395316   19.413894    9.959066
      5          6           0       -9.910976   19.692850   12.625702
      6          6           0      -11.344158   19.198741   12.646366
      7          6           0      -11.617743   17.830757   12.795192
      8          6           0      -12.408846   20.091265   12.459091
      9          6           0      -12.935111   17.367975   12.764347
     10          6           0      -13.724808   19.627834   12.428218
     11          6           0      -13.989774   18.264579   12.580875
     12          1           0       -9.375375   17.817733   10.864125
     13          1           0       -9.860040   20.754682   10.720838
     14          1           0       -9.258932   18.983769   13.141491
     15          1           0       -9.847155   20.653619   13.139987
     16          1           0      -10.794415   17.133468   12.932594
     17          1           0      -12.208831   21.155863   12.352918
     18          1           0      -13.136449   16.307910   12.889217
     19          1           0      -14.542040   20.330335   12.292934
     20          1           0      -15.014120   17.904420   12.561624
     21          1           0       -9.296798   18.734993    9.455420
     22          1           0      -10.793123   18.602016   10.263816
     23          7           0       -7.042386   20.517385   11.897081
     24          6           0       -5.576999   20.356828   11.715575
     25          6           0       -5.177659   18.877241   11.597600
     26          8           0       -4.298811   18.518774   10.828248
     27          6           0       -4.995440   21.084855   12.940783
     28          6           0       -6.027418   22.189035   13.213006
     29          6           0       -7.366367   21.476102   12.977020
     30          1           0       -5.264235   20.823068   10.777415
     31          1           0       -4.937293   20.397242   13.792825
     32          1           0       -3.990571   21.463131   12.742771
     33          1           0       -5.958676   22.607308   14.220415
     34          1           0       -5.907092   23.007012   12.494137
     35          1           0       -8.163316   22.157479   12.667227
     36          1           0       -7.689735   20.945101   13.879554
     37          7           0       -5.855793   18.015596   12.431749
     38          6           0       -6.012008   16.632828   11.998961
     39          6           0       -7.395313   16.465238   11.333829
     40          8           0       -8.358161   17.082517   11.863447
     41          6           0       -5.817405   15.603733   13.120846
     42          6           0       -5.758184   14.156796   12.598032
     43          6           0       -4.539618   13.851995   11.681865
     44          6           0       -4.853455   13.544664   10.214389
     45          7           0       -5.314579   14.750023    9.439712
     46          8           0       -7.496005   15.715857   10.314640
     47          1           0       -6.688998   18.388302   12.872109
     48          1           0       -5.229040   16.495257   11.255031
     49          1           0       -6.635075   15.700650   13.845438
     50          1           0       -4.887727   15.850308   13.647607
     51          1           0       -5.723001   13.487692   13.463495
     52          1           0       -6.691246   13.917606   12.073027
     53          1           0       -4.017199   12.965029   12.056717
     54          1           0       -3.800478   14.663886   11.731834
     55          1           0       -3.969389   13.143538    9.709702
     56          1           0       -5.656865   12.806552   10.135195
     57          1           0       -4.603957   15.488492    9.446089
     58          1           0       -6.304303   15.198406    9.853604
     59          1           0       -5.480573   14.506985    8.459583
 ---------------------------------------------------------------------

 SCF Done:  E(RB3LYP) =  -1300.63263183     A.U. after    1 cycles

 Alpha  occ. eigenvalues --  -19.24043 -19.23122 -19.22333 -19.21129 -14.54371
 Alpha  occ. eigenvalues --  -14.52981 -14.48670 -14.44858 -10.41470 -10.39887
 Alpha  occ. eigenvalues --  -10.38259 -10.38059 -10.35587 -10.34088 -10.33364
 Alpha  occ. eigenvalues --  -10.32374 -10.31297 -10.30347 -10.29949 -10.29652
 Alpha  occ. eigenvalues --  -10.29491 -10.28777 -10.28776 -10.28529 -10.28454
 Alpha  occ. eigenvalues --  -10.28354 -10.28287 -10.28114  -1.16827  -1.15932
 Alpha  occ. eigenvalues --   -1.12912  -1.09749  -1.08512  -1.06616  -1.06090
 Alpha  occ. eigenvalues --   -1.01604  -0.95482  -0.91631  -0.91042  -0.89485
 Alpha  occ. eigenvalues --   -0.87262  -0.85388  -0.84052  -0.83828  -0.80035
 Alpha  occ. eigenvalues --   -0.77822  -0.75463  -0.74402  -0.71254  -0.70547
 Alpha  occ. eigenvalues --   -0.69971  -0.69355  -0.69175  -0.68534  -0.67801
 Alpha  occ. eigenvalues --   -0.67375  -0.66918  -0.66521  -0.64223  -0.61179
 Alpha  occ. eigenvalues --   -0.60767  -0.60549  -0.60081  -0.59833  -0.58000
 Alpha  occ. eigenvalues --   -0.57312  -0.57203  -0.55975  -0.55485  -0.55109
 Alpha  occ. eigenvalues --   -0.54360  -0.54005  -0.53306  -0.52843  -0.52538
 Alpha  occ. eigenvalues --   -0.52203  -0.51737  -0.51324  -0.51062  -0.50770
 Alpha  occ. eigenvalues --   -0.49977  -0.49691  -0.48992  -0.48627  -0.48202
 Alpha  occ. eigenvalues --   -0.47400  -0.46687  -0.46109  -0.45371  -0.45242
 Alpha  occ. eigenvalues --   -0.44706  -0.44541  -0.43768  -0.43699  -0.43392
 Alpha  occ. eigenvalues --   -0.42870  -0.38978  -0.38177  -0.38115  -0.37263
 Alpha  occ. eigenvalues --   -0.36697  -0.34585  -0.34510  -0.34190  -0.33890
 Alpha virt. eigenvalues --   -0.11661  -0.09948  -0.09816  -0.08153  -0.07084
 Alpha virt. eigenvalues --   -0.06402  -0.04547  -0.03345  -0.01746  -0.01699
 Alpha virt. eigenvalues --   -0.00335  -0.00168   0.00686   0.00763   0.01556

 Mulliken charges:
               1
     1  N   -0.759795
     2  C   -0.104810
     3  C    0.635237
     4  O   -0.532483
     5  C   -0.375565
     6  C    0.110423
     7  C   -0.208763
     8  C   -0.185889
     9  C   -0.128358
    10  C   -0.127199
    11  C   -0.125478
    12  H    0.448353
    13  H    0.207426
    14  H    0.196989
    15  H    0.179233
    16  H    0.167954
    17  H    0.134763
    18  H    0.156465
    19  H    0.157930
    20  H    0.159147
    21  H    0.408267
    22  H    0.397762
    23  N   -0.489314
    24  C   -0.019501
    25  C    0.613609
    26  O   -0.516298
    27  C   -0.314930
    28  C   -0.301768
    29  C   -0.140335
    30  H    0.199459
    31  H    0.169451
    32  H    0.191889
    33  H    0.179785
    34  H    0.174629
    35  H    0.173238
    36  H    0.173649
    37  N   -0.594066
    38  C   -0.067842
    39  C    0.667643
    40  O   -0.613782
    41  C   -0.276889
    42  C   -0.295719
    43  C   -0.290435
    44  C   -0.181393
    45  N   -0.786763
    46  O   -0.606989
    47  H    0.336303
    48  H    0.143423
    49  H    0.159858
    50  H    0.167492
    51  H    0.171188
    52  H    0.162708
    53  H    0.185194
    54  H    0.167823
    55  H    0.193376
    56  H    0.201348
    57  H    0.394545
    58  H    0.469708
    59  H    0.388096
 Sum of Mulliken charges =   1.00000

 Dipole moment (field-independent basis, Debye):
    X=            -37.5661    Y=             84.9576    Z=             53.7134  Tot=            107.3040
 Quadrupole moment (field-independent basis, Debye-Ang):
   XX=            179.4746   YY=           1405.7778   ZZ=            454.1403
   XY=           -696.5909   XZ=           -421.2569   YZ=            970.4523

 Normal termination of Gaussian 16 at Wed May 25 08:31:57 2022.
