 Gaussian 16, Revision C.01,
 Gaussian 16:  ES64L-G16RevC.01  3-Jul-2019

 ----------------------------------------------------------------------
 # B3LYP/6-31G* empiricaldispersion=gd3 guess=read geom=check nosymm in
 tegral(ultrafinegrid)
 ----------------------------------------------------------------------

 ----------------------------------------------------
 Candidate Structure: Conf:3 Charge calc in gas phase
 ----------------------------------------------------
 Structure from the checkpoint file:  "conf-3.chk"
 Charge =  1 Multiplicity = 1

                          Input orientation:
 ---------------------------------------------------------------------
 Center     Atomic      Atomic             Coordinates (Angstroms)
 Number     Number       Type             X           Y           Z
 ---------------------------------------------------------------------
      1          7           0       -7.231012   17.134064   13.197832
      2          6           0       -6.652244   18.463368   13.598627
      3          6           0       -6.608048   19.481505   12.432279
      4          8           0       -7.212777   20.533725   12.593948
      5          6           0       -5.335207   18.310687   14.390216
      6          6           0       -5.526552   17.439292   15.613399
      7          6           0       -5.136998   16.092235   15.600785
      8          6           0       -6.162299   17.948018   16.755272
      9          6           0       -5.372675   15.270902   16.707167
     10          6           0       -6.395275   17.131216   17.860721
     11          6           0       -6.002574   15.789710   17.838434
     12          1           0       -7.114449   16.450116   13.952959
     13          1           0       -7.393951   18.899196   14.269706
     14          1           0       -4.540246   17.901484   13.761064
     15          1           0       -5.026717   19.322519   14.675988
     16          1           0       -4.624042   15.688761   14.729326
     17          1           0       -6.466369   18.992234   16.779005
     18          1           0       -5.055353   14.232200   16.685948
     19          1           0       -6.878994   17.542036   18.742271
     20          1           0       -6.181756   15.155470   18.701667
     21          1           0       -6.869311   16.748799   12.310311
     22          1           0       -8.283607   17.250092   12.911994
     23          7           0       -5.909129   19.220835   11.288571
     24          6           0       -5.981545   20.210073   10.177496
     25          6           0       -7.429628   20.262957    9.638685
     26          8           0       -8.103203   21.273286    9.675635
     27          6           0       -4.922577   19.707932    9.167313
     28          6           0       -4.022515   18.761261    9.980634
     29          6           0       -5.005901   18.108238   10.958460
     30          1           0       -5.760033   21.204653   10.568789
     31          1           0       -5.398998   19.160659    8.346485
     32          1           0       -4.375145   20.542340    8.722990
     33          1           0       -3.501390   18.026999    9.359928
     34          1           0       -3.272885   19.332020   10.539788
     35          1           0       -4.510311   17.717323   11.847951
     36          1           0       -5.563392   17.290983   10.482780
     37          7           0       -7.915725   19.040926    9.183662
     38          6           0       -9.196368   18.574770    9.728445
     39          6           0       -8.832866   17.554487   10.840734
     40          8           0       -7.893443   16.752758   10.581468
     41          6           0      -10.088519   17.941237    8.655814
     42          6           0      -11.460847   17.569038    9.232187
     43          6           0      -12.370994   16.906677    8.186375
     44          6           0      -13.726309   16.577439    8.792977
     45          7           0      -14.644170   15.928768    7.746748
     46          8           0       -9.444343   17.651555   11.949660
     47          1           0       -7.255619   18.270582    9.250329
     48          1           0       -9.703301   19.431192   10.178550
     49          1           0       -9.587028   17.048059    8.259668
     50          1           0      -10.201540   18.652144    7.828208
     51          1           0      -11.332842   16.899475   10.091917
     52          1           0      -11.947493   18.475149    9.617434
     53          1           0      -11.896158   15.988785    7.811954
     54          1           0      -12.500508   17.582860    7.329305
     55          1           0      -13.653763   15.860580    9.614547
     56          1           0      -14.254666   17.467797    9.142694
     57          1           0      -15.569601   15.694614    8.126616
     58          1           0      -14.225761   15.064152    7.382055
     59          1           0      -14.783047   16.557778    6.946201
 ---------------------------------------------------------------------

 SCF Done:  E(RB3LYP) =  -1300.56305397     A.U. after    1 cycles

 Alpha  occ. eigenvalues --  -19.18522 -19.17351 -19.17293 -19.16808 -14.65077
 Alpha  occ. eigenvalues --  -14.49753 -14.44150 -14.40145 -10.41787 -10.36460
 Alpha  occ. eigenvalues --  -10.34485 -10.34035 -10.34025 -10.33429 -10.30256
 Alpha  occ. eigenvalues --  -10.29772 -10.29501 -10.28816 -10.28520 -10.28037
 Alpha  occ. eigenvalues --  -10.27114 -10.27059 -10.26753 -10.26716 -10.26656
 Alpha  occ. eigenvalues --  -10.26578 -10.26451 -10.26438  -1.18900  -1.11335
 Alpha  occ. eigenvalues --   -1.10520  -1.08827  -1.05117  -1.01813  -1.01212
 Alpha  occ. eigenvalues --   -0.97220  -0.95164  -0.93591  -0.87996  -0.87505
 Alpha  occ. eigenvalues --   -0.86496  -0.82949  -0.82191  -0.81320  -0.80819
 Alpha  occ. eigenvalues --   -0.77552  -0.77515  -0.74893  -0.73399  -0.71615
 Alpha  occ. eigenvalues --   -0.69489  -0.68411  -0.67691  -0.66468  -0.66112
 Alpha  occ. eigenvalues --   -0.65788  -0.64413  -0.62797  -0.62268  -0.61217
 Alpha  occ. eigenvalues --   -0.60026  -0.59543  -0.58476  -0.57682  -0.56374
 Alpha  occ. eigenvalues --   -0.55585  -0.54913  -0.53837  -0.53361  -0.52940
 Alpha  occ. eigenvalues --   -0.52224  -0.51376  -0.51173  -0.50582  -0.49913
 Alpha  occ. eigenvalues --   -0.49717  -0.49496  -0.49098  -0.48400  -0.47717
 Alpha  occ. eigenvalues --   -0.47511  -0.47389  -0.46441  -0.45951  -0.45235
 Alpha  occ. eigenvalues --   -0.44597  -0.44386  -0.43894  -0.43237  -0.43067
 Alpha  occ. eigenvalues --   -0.42669  -0.42045  -0.41690  -0.41587  -0.41284
 Alpha  occ. eigenvalues --   -0.40289  -0.33975  -0.33064  -0.32876  -0.32850
 Alpha  occ. eigenvalues --   -0.32621  -0.31763  -0.31323  -0.29593  -0.29250
 Alpha virt. eigenvalues --   -0.15504  -0.08800  -0.08752  -0.08534  -0.08149
 Alpha virt. eigenvalues --   -0.06344  -0.06284  -0.05116  -0.03112  -0.02647
 Alpha virt. eigenvalues --   -0.01308  -0.00608   0.00201   0.00846   0.01960

 Mulliken charges:
               1
     1  N   -0.793224
     2  C   -0.086373
     3  C    0.595381
     4  O   -0.483122
     5  C   -0.382173
     6  C    0.140944
     7  C   -0.212015
     8  C   -0.177894
     9  C   -0.123810
    10  C   -0.125715
    11  C   -0.126772
    12  H    0.379003
    13  H    0.215956
    14  H    0.171695
    15  H    0.197216
    16  H    0.132169
    17  H    0.149302
    18  H    0.150290
    19  H    0.154181
    20  H    0.152627
    21  H    0.408237
    22  H    0.431971
    23  N   -0.453681
    24  C   -0.031566
    25  C    0.583119
    26  O   -0.471375
    27  C   -0.328731
    28  C   -0.284507
    29  C   -0.183569
    30  H    0.194196
    31  H    0.164714
    32  H    0.180212
    33  H    0.163260
    34  H    0.164593
    35  H    0.152631
    36  H    0.190030
    37  N   -0.601124
    38  C   -0.034813
    39  C    0.581696
    40  O   -0.608634
    41  C   -0.270375
    42  C   -0.281897
    43  C   -0.291012
    44  C   -0.207397
    45  N   -0.732075
    46  O   -0.616502
    47  H    0.335473
    48  H    0.184504
    49  H    0.149363
    50  H    0.157432
    51  H    0.179337
    52  H    0.164413
    53  H    0.167896
    54  H    0.167614
    55  H    0.231789
    56  H    0.231747
    57  H    0.430820
    58  H    0.426949
    59  H    0.427598
 Sum of Mulliken charges =   1.00000

 Dipole moment (field-independent basis, Debye):
    X=            -58.4299    Y=             73.1111    Z=             45.0792  Tot=            103.8818
 Quadrupole moment (field-independent basis, Debye-Ang):
   XX=            667.8729   YY=            919.2108   ZZ=            326.5896
   XY=           -887.4753   XZ=           -483.0206   YZ=            681.7369

 Normal termination of Gaussian 16 at Wed May 25 08:31:55 2022.
