 Gaussian 16, Revision C.01,
 Gaussian 16:  ES64L-G16RevC.01  3-Jul-2019

 ----------------------------------------------------------------------
 # B3LYP/6-31G* empiricaldispersion=gd3 guess=read geom=check nosymm in
 tegral(ultrafinegrid)
 ----------------------------------------------------------------------

 ------------------------------------------------------
 Candidate Structure: Conf:815 Charge calc in gas phase
 ------------------------------------------------------
 Structure from the checkpoint file:  "conf-815.chk"
 Charge =  1 Multiplicity = 1

                          Input orientation:
 ---------------------------------------------------------------------
 Center     Atomic      Atomic             Coordinates (Angstroms)
 Number     Number       Type             X           Y           Z
 ---------------------------------------------------------------------
      1          7           0       -5.451637   18.491968   11.482981
      2          6           0       -5.832745   18.647258   12.934271
      3          6           0       -6.674359   17.371550   13.204887
      4          8           0       -6.492428   16.406559   12.455803
      5          6           0       -6.513740   20.020779   13.128421
      6          6           0       -5.761198   21.131420   12.422197
      7          6           0       -6.164723   21.559222   11.148388
      8          6           0       -4.621909   21.703547   13.005195
      9          6           0       -5.443203   22.547758   10.475527
     10          6           0       -3.901573   22.691173   12.331979
     11          6           0       -4.311621   23.114798   11.065349
     12          1           0       -6.356502   18.616018   10.912500
     13          1           0       -4.904097   18.600067   13.514630
     14          1           0       -7.536646   19.956882   12.749590
     15          1           0       -6.557300   20.230903   14.198754
     16          1           0       -7.043340   21.112430   10.688630
     17          1           0       -4.305873   21.386584   13.997317
     18          1           0       -5.769236   22.877901    9.493397
     19          1           0       -3.026593   23.134465   12.798432
     20          1           0       -3.753936   23.886760   10.543400
     21          1           0       -5.145685   17.523797   11.328387
     22          1           0       -4.748247   19.177824   11.200304
     23          7           0       -7.623295   17.350864   14.166774
     24          6           0       -8.523612   16.170539   14.216149
     25          6           0       -9.232620   15.939521   12.872007
     26          8           0       -9.428645   14.811355   12.445991
     27          6           0       -9.462577   16.501213   15.390263
     28          6           0       -8.573890   17.336271   16.323589
     29          6           0       -7.789242   18.225673   15.348858
     30          1           0       -7.940675   15.264553   14.402411
     31          1           0      -10.311156   17.097841   15.035141
     32          1           0       -9.857371   15.595642   15.855169
     33          1           0       -9.140770   17.925298   17.049013
     34          1           0       -7.885110   16.686214   16.874362
     35          1           0       -6.818055   18.536749   15.743078
     36          1           0       -8.365212   19.120845   15.088009
     37          7           0       -9.644577   17.080885   12.219698
     38          6           0       -9.746705   17.035282   10.766750
     39          6           0       -8.454189   17.613848   10.151174
     40          8           0       -7.950093   18.615032   10.727423
     41          6           0      -10.984618   17.750602   10.208266
     42          6           0      -11.192311   17.497102    8.703970
     43          6           0      -11.498372   16.017936    8.335959
     44          6           0      -10.429799   15.287565    7.516901
     45          7           0       -9.183302   14.983101    8.303696
     46          8           0       -7.980721   17.072871    9.105437
     47          1           0       -9.254774   17.951807   12.561056
     48          1           0       -9.818427   15.973536   10.536232
     49          1           0      -10.891305   18.828098   10.390852
     50          1           0      -11.858641   17.401939   10.771382
     51          1           0      -12.026294   18.122119    8.369630
     52          1           0      -10.314131   17.847894    8.147913
     53          1           0      -12.407546   15.976628    7.726177
     54          1           0      -11.728733   15.430942    9.236157
     55          1           0      -10.821329   14.340058    7.134636
     56          1           0      -10.110989   15.894617    6.664612
     57          1           0       -9.392727   14.393809    9.115594
     58          1           0       -8.645685   15.942023    8.682961
     59          1           0       -8.510911   14.468063    7.729324
 ---------------------------------------------------------------------

 SCF Done:  E(RB3LYP) =  -1300.63262479     A.U. after    1 cycles

 Alpha  occ. eigenvalues --  -19.24037 -19.23123 -19.22334 -19.21117 -14.54376
 Alpha  occ. eigenvalues --  -14.52981 -14.48663 -14.44850 -10.41464 -10.39890
 Alpha  occ. eigenvalues --  -10.38248 -10.38059 -10.35587 -10.34084 -10.33356
 Alpha  occ. eigenvalues --  -10.32378 -10.31297 -10.30347 -10.29948 -10.29646
 Alpha  occ. eigenvalues --  -10.29483 -10.28778 -10.28775 -10.28532 -10.28452
 Alpha  occ. eigenvalues --  -10.28353 -10.28286 -10.28113  -1.16822  -1.15932
 Alpha  occ. eigenvalues --   -1.12902  -1.09751  -1.08514  -1.06619  -1.06085
 Alpha  occ. eigenvalues --   -1.01599  -0.95480  -0.91627  -0.91042  -0.89481
 Alpha  occ. eigenvalues --   -0.87260  -0.85384  -0.84050  -0.83827  -0.80037
 Alpha  occ. eigenvalues --   -0.77819  -0.75460  -0.74401  -0.71251  -0.70544
 Alpha  occ. eigenvalues --   -0.69970  -0.69358  -0.69172  -0.68536  -0.67800
 Alpha  occ. eigenvalues --   -0.67376  -0.66917  -0.66521  -0.64219  -0.61178
 Alpha  occ. eigenvalues --   -0.60766  -0.60550  -0.60078  -0.59834  -0.57997
 Alpha  occ. eigenvalues --   -0.57306  -0.57203  -0.55974  -0.55486  -0.55108
 Alpha  occ. eigenvalues --   -0.54357  -0.54003  -0.53303  -0.52838  -0.52534
 Alpha  occ. eigenvalues --   -0.52199  -0.51736  -0.51321  -0.51057  -0.50765
 Alpha  occ. eigenvalues --   -0.49973  -0.49691  -0.48990  -0.48623  -0.48202
 Alpha  occ. eigenvalues --   -0.47399  -0.46686  -0.46103  -0.45369  -0.45240
 Alpha  occ. eigenvalues --   -0.44706  -0.44535  -0.43770  -0.43698  -0.43390
 Alpha  occ. eigenvalues --   -0.42870  -0.38976  -0.38173  -0.38116  -0.37258
 Alpha  occ. eigenvalues --   -0.36695  -0.34583  -0.34501  -0.34189  -0.33883
 Alpha virt. eigenvalues --   -0.11656  -0.09947  -0.09815  -0.08141  -0.07085
 Alpha virt. eigenvalues --   -0.06409  -0.04548  -0.03343  -0.01756  -0.01700
 Alpha virt. eigenvalues --   -0.00337  -0.00170   0.00684   0.00763   0.01553

 Mulliken charges:
               1
     1  N   -0.759746
     2  C   -0.104843
     3  C    0.635137
     4  O   -0.532367
     5  C   -0.375451
     6  C    0.110293
     7  C   -0.208799
     8  C   -0.185854
     9  C   -0.128368
    10  C   -0.127211
    11  C   -0.125461
    12  H    0.448392
    13  H    0.207425
    14  H    0.196904
    15  H    0.179224
    16  H    0.168006
    17  H    0.134778
    18  H    0.156435
    19  H    0.157930
    20  H    0.159137
    21  H    0.408254
    22  H    0.397760
    23  N   -0.489339
    24  C   -0.019491
    25  C    0.613470
    26  O   -0.516118
    27  C   -0.314913
    28  C   -0.301710
    29  C   -0.140347
    30  H    0.199498
    31  H    0.169443
    32  H    0.191880
    33  H    0.179751
    34  H    0.174615
    35  H    0.173208
    36  H    0.173586
    37  N   -0.594092
    38  C   -0.068077
    39  C    0.667540
    40  O   -0.613642
    41  C   -0.276790
    42  C   -0.295789
    43  C   -0.290310
    44  C   -0.181436
    45  N   -0.786716
    46  O   -0.606820
    47  H    0.336391
    48  H    0.143505
    49  H    0.159747
    50  H    0.167511
    51  H    0.171182
    52  H    0.162716
    53  H    0.185206
    54  H    0.167726
    55  H    0.193360
    56  H    0.201362
    57  H    0.394400
    58  H    0.469811
    59  H    0.388109
 Sum of Mulliken charges =   1.00000

 Dipole moment (field-independent basis, Debye):
    X=            -36.7220    Y=             85.0824    Z=             53.6136  Tot=            107.0605
 Quadrupole moment (field-independent basis, Debye-Ang):
   XX=            158.8683   YY=           1372.2660   ZZ=            497.5149
   XY=           -624.1771   XZ=           -389.3510   YZ=            975.9074

 Normal termination of Gaussian 16 at Wed May 25 08:35:11 2022.
