 Gaussian 16, Revision C.01,
 Gaussian 16:  ES64L-G16RevC.01  3-Jul-2019

 ----------------------------------------------------------------------
 # B3LYP/6-31G* empiricaldispersion=gd3 guess=read geom=check nosymm in
 tegral(ultrafinegrid)
 ----------------------------------------------------------------------

 ------------------------------------------------------
 Candidate Structure: Conf:684 Charge calc in gas phase
 ------------------------------------------------------
 Structure from the checkpoint file:  "conf-684.chk"
 Charge =  1 Multiplicity = 1

                          Input orientation:
 ---------------------------------------------------------------------
 Center     Atomic      Atomic             Coordinates (Angstroms)
 Number     Number       Type             X           Y           Z
 ---------------------------------------------------------------------
      1          7           0      -96.094020  -15.641846    6.236594
      2          6           0      -96.286075  -15.815923    4.750368
      3          6           0      -94.885877  -15.539815    4.166441
      4          8           0      -93.965470  -16.248043    4.564860
      5          6           0      -97.508274  -15.009153    4.289155
      6          6           0      -98.741240  -15.421403    5.038877
      7          6           0      -99.436199  -14.659353    5.951024
      8          6           0      -99.399627  -16.705770    4.986076
      9          6           0     -100.492090  -16.649505    5.892132
     10          6           0      -99.179500  -17.887437    4.254926
     11          7           0     -100.483781  -15.391891    6.467479
     12          6           0     -101.355502  -17.731750    6.090989
     13          6           0     -100.033352  -18.964578    4.449245
     14          6           0     -101.108692  -18.887067    5.359683
     15          1           0      -96.467456  -16.883183    4.597404
     16          1           0      -97.321658  -13.938704    4.425603
     17          1           0      -97.626866  -15.193658    3.213392
     18          1           0      -99.270346  -13.633779    6.252403
     19          1           0     -101.184521  -15.039359    7.101314
     20          1           0      -98.367563  -17.954143    3.534815
     21          1           0     -102.188132  -17.670756    6.785916
     22          1           0      -99.878241  -19.881448    3.888706
     23          1           0     -101.760055  -19.746340    5.487167
     24          1           0      -96.959723  -15.883025    6.731075
     25          1           0      -95.315838  -16.239988    6.536611
     26          7           0      -94.755062  -14.520523    3.296623
     27          6           0      -93.465891  -14.155628    2.695443
     28          6           0      -92.378163  -13.961678    3.788726
     29          8           0      -91.318785  -14.563563    3.742468
     30          6           0      -92.992415  -15.151706    1.607676
     31          6           0      -91.901364  -14.487530    0.738319
     32          6           0      -94.169228  -15.630473    0.746315
     33          6           0      -91.088703  -15.486158   -0.091793
     34          1           0      -95.543277  -13.911652    3.126660
     35          1           0      -93.648083  -13.191372    2.210320
     36          1           0      -92.552372  -16.007447    2.129332
     37          1           0      -92.380293  -13.750974    0.074755
     38          1           0      -91.210245  -13.936094    1.382336
     39          1           0      -94.691515  -14.784527    0.279110
     40          1           0      -93.813848  -16.281502   -0.057036
     41          1           0      -94.900922  -16.201021    1.326540
     42          1           0      -91.713431  -16.048913   -0.793887
     43          1           0      -90.582868  -16.205182    0.562429
     44          1           0      -90.321416  -14.969131   -0.677822
     45          7           0      -92.622141  -13.113842    4.853317
     46          6           0      -93.570827  -12.014330    5.057092
     47          6           0      -94.999463  -12.520903    5.387190
     48          8           0      -95.963783  -12.181106    4.669423
     49          6           0      -93.467400  -10.919789    3.971837
     50          6           0      -94.398002   -9.692131    4.075935
     51          6           0      -94.503456   -9.015064    5.449757
     52          7           0      -95.329604   -9.833839    6.357884
     53          6           0      -95.142922   -9.971155    7.671136
     54          7           0      -94.538200   -8.989057    8.365222
     55          7           0      -95.551706  -11.093362    8.278797
     56          8           0      -95.085212  -13.197506    6.477182
     57          1           0      -95.817393  -14.619888    6.435492
     58          1           0      -91.829781  -13.129600    5.483276
     59          1           0      -93.239684  -11.572822    6.004255
     60          1           0      -92.423028  -10.583346    3.975530
     61          1           0      -93.641259  -11.360628    2.987196
     62          1           0      -95.403590   -9.966023    3.744609
     63          1           0      -94.031610   -8.934356    3.374102
     64          1           0      -93.513230   -8.886657    5.903579
     65          1           0      -94.957419   -8.023174    5.338879
     66          1           0      -95.936864  -10.515891    5.904176
     67          1           0      -94.245094   -9.128054    9.320968
     68          1           0      -94.503556   -8.048023    8.000439
     69          1           0      -95.535768  -11.973689    7.735393
     70          1           0      -95.555969  -11.149273    9.287430
 ---------------------------------------------------------------------

 SCF Done:  E(RB3LYP) =  -1582.24237445     A.U. after    1 cycles

 Alpha  occ. eigenvalues --  -19.22031 -19.21581 -19.21505 -19.18999 -14.54108
 Alpha  occ. eigenvalues --  -14.52316 -14.50717 -14.50229 -14.46956 -14.46333
 Alpha  occ. eigenvalues --  -14.44031 -10.47621 -10.39515 -10.39144 -10.36806
 Alpha  occ. eigenvalues --  -10.35910 -10.35561 -10.33226 -10.32048 -10.31444
 Alpha  occ. eigenvalues --  -10.30400 -10.29933 -10.29878 -10.28993 -10.27920
 Alpha  occ. eigenvalues --  -10.27098 -10.26903 -10.26842 -10.26285 -10.25961
 Alpha  occ. eigenvalues --  -10.25560 -10.24085 -10.23768 -10.22417  -1.16290
 Alpha  occ. eigenvalues --   -1.15056  -1.14099  -1.11232  -1.09060  -1.06821
 Alpha  occ. eigenvalues --   -1.06121  -1.05329  -1.04072  -1.02743  -1.00006
 Alpha  occ. eigenvalues --   -0.92241  -0.90727  -0.90601  -0.88041  -0.85511
 Alpha  occ. eigenvalues --   -0.84830  -0.81782  -0.81291  -0.80244  -0.79379
 Alpha  occ. eigenvalues --   -0.77740  -0.77326  -0.76470  -0.73514  -0.71523
 Alpha  occ. eigenvalues --   -0.70627  -0.70599  -0.69563  -0.69380  -0.68795
 Alpha  occ. eigenvalues --   -0.68142  -0.67266  -0.66385  -0.65438  -0.64958
 Alpha  occ. eigenvalues --   -0.64555  -0.62856  -0.62451  -0.62000  -0.61180
 Alpha  occ. eigenvalues --   -0.60088  -0.59869  -0.59678  -0.57676  -0.57134
 Alpha  occ. eigenvalues --   -0.56345  -0.55332  -0.55101  -0.54800  -0.54283
 Alpha  occ. eigenvalues --   -0.53438  -0.53181  -0.52704  -0.52098  -0.51716
 Alpha  occ. eigenvalues --   -0.51374  -0.51110  -0.50774  -0.50698  -0.49922
 Alpha  occ. eigenvalues --   -0.49185  -0.48867  -0.48635  -0.48330  -0.47553
 Alpha  occ. eigenvalues --   -0.47163  -0.46403  -0.46195  -0.45597  -0.45294
 Alpha  occ. eigenvalues --   -0.44485  -0.43996  -0.43485  -0.43396  -0.42976
 Alpha  occ. eigenvalues --   -0.41732  -0.41578  -0.41511  -0.40267  -0.39927
 Alpha  occ. eigenvalues --   -0.38668  -0.38374  -0.38253  -0.36944  -0.36424
 Alpha  occ. eigenvalues --   -0.35633  -0.35447  -0.35008  -0.32744  -0.31993
 Alpha  occ. eigenvalues --   -0.30691  -0.29201
 Alpha virt. eigenvalues --   -0.12538  -0.09672  -0.09449  -0.08852  -0.07489
 Alpha virt. eigenvalues --   -0.06217  -0.05696  -0.04092  -0.04058  -0.02806
 Alpha virt. eigenvalues --   -0.02383  -0.01370  -0.00771  -0.00643   0.00101

 Mulliken charges:
               1
     1  N   -0.762977
     2  C   -0.108162
     3  C    0.626959
     4  O   -0.515592
     5  C   -0.411048
     6  C    0.012933
     7  C   -0.009310
     8  C    0.086639
     9  C    0.309242
    10  C   -0.215739
    11  N   -0.682709
    12  C   -0.157459
    13  C   -0.136606
    14  C   -0.147968
    15  H    0.217189
    16  H    0.211690
    17  H    0.183460
    18  H    0.161477
    19  H    0.341144
    20  H    0.129697
    21  H    0.143184
    22  H    0.145677
    23  H    0.149458
    24  H    0.390648
    25  H    0.405927
    26  N   -0.622933
    27  C   -0.063508
    28  C    0.621381
    29  O   -0.480529
    30  C   -0.066612
    31  C   -0.265473
    32  C   -0.458743
    33  C   -0.452693
    34  H    0.368279
    35  H    0.161648
    36  H    0.178829
    37  H    0.119898
    38  H    0.156620
    39  H    0.131540
    40  H    0.168417
    41  H    0.134346
    42  H    0.146707
    43  H    0.162252
    44  H    0.151962
    45  N   -0.611259
    46  C   -0.017066
    47  C    0.592059
    48  O   -0.565196
    49  C   -0.271157
    50  C   -0.309281
    51  C   -0.156716
    52  N   -0.604800
    53  C    0.772139
    54  N   -0.750766
    55  N   -0.778523
    56  O   -0.642980
    57  H    0.438462
    58  H    0.338343
    59  H    0.138150
    60  H    0.156556
    61  H    0.163371
    62  H    0.188644
    63  H    0.172594
    64  H    0.174616
    65  H    0.182587
    66  H    0.389685
    67  H    0.377807
    68  H    0.385524
    69  H    0.418063
    70  H    0.360004
 Sum of Mulliken charges =   1.00000

 Dipole moment (field-independent basis, Debye):
    X=           -463.3980    Y=            -55.5087    Z=             34.6661  Tot=            467.9965
 Quadrupole moment (field-independent basis, Debye-Ang):
   XX=          44523.9743   YY=            500.6193   ZZ=             83.2242
   XY=           5404.1402   XZ=          -3342.1007   YZ=           -392.7194

 Normal termination of Gaussian 16 at Tue May 24 23:10:42 2022.
