 Gaussian 16, Revision C.01,
 Gaussian 16:  ES64L-G16RevC.01  3-Jul-2019

 ----------------------------------------------------------------------
 # B3LYP/6-31G* empiricaldispersion=gd3 guess=read geom=check nosymm in
 tegral(ultrafinegrid)
 ----------------------------------------------------------------------

 ------------------------------------------------------
 Candidate Structure: Conf:962 Charge calc in gas phase
 ------------------------------------------------------
 Structure from the checkpoint file:  "conf-962.chk"
 Charge =  1 Multiplicity = 1

                          Input orientation:
 ---------------------------------------------------------------------
 Center     Atomic      Atomic             Coordinates (Angstroms)
 Number     Number       Type             X           Y           Z
 ---------------------------------------------------------------------
      1          7           0      -97.532541  -10.925200    6.631100
      2          6           0      -97.243377  -12.213097    6.022250
      3          6           0      -96.036883  -12.931192    6.632647
      4          8           0      -95.016354  -12.305101    6.962580
      5          6           0      -96.942674  -12.016534    4.496172
      6          6           0      -98.142462  -12.253460    3.639185
      7          6           0      -98.991594  -11.326108    3.089841
      8          6           0      -98.655678  -13.547964    3.272170
      9          6           0      -99.819913  -13.331905    2.483429
     10          6           0      -98.252822  -14.869298    3.535726
     11          7           0      -99.996307  -11.966881    2.391109
     12          6           0     -100.565988  -14.388053    1.951599
     13          6           0      -98.991677  -15.923890    3.010960
     14          6           0     -100.137064  -15.683090    2.224009
     15          1           0      -98.133944  -12.844603    6.118575
     16          1           0      -96.549440  -11.003879    4.365363
     17          1           0      -96.140997  -12.697476    4.180987
     18          1           0      -98.959238  -10.247178    3.149420
     19          1           0     -100.749096  -11.506609    1.902911
     20          1           0      -97.377585  -15.064674    4.150713
     21          1           0     -101.452530  -14.205717    1.350666
     22          1           0      -98.694049  -16.948880    3.215878
     23          1           0     -100.699145  -16.524047    1.828902
     24          1           0      -97.904857  -11.049857    7.571161
     25          1           0      -96.657302  -10.411179    6.736852
     26          7           0      -96.102026  -14.280999    6.662012
     27          6           0      -95.094329  -15.208698    7.196982
     28          6           0      -93.668996  -14.594103    7.220869
     29          8           0      -93.098762  -14.405208    8.279203
     30          6           0      -95.472223  -15.752831    8.599294
     31          6           0      -94.622799  -17.003506    8.918199
     32          6           0      -96.973043  -16.070233    8.690233
     33          6           0      -94.608694  -17.371368   10.405552
     34          1           0      -97.002573  -14.695460    6.455303
     35          1           0      -95.073681  -16.060366    6.505353
     36          1           0      -95.226103  -14.968194    9.322542
     37          1           0      -95.004704  -17.849273    8.326004
     38          1           0      -93.589102  -16.834319    8.600319
     39          1           0      -97.203622  -16.548240    9.645662
     40          1           0      -97.594019  -15.170309    8.629378
     41          1           0      -97.286945  -16.764970    7.897838
     42          1           0      -95.610021  -17.596195   10.788387
     43          1           0      -94.195939  -16.548631   11.000038
     44          1           0      -93.986251  -18.255439   10.579321
     45          7           0      -92.936072  -14.390870    6.051802
     46          6           0      -93.158431  -14.310924    4.611785
     47          6           0      -93.140623  -12.846445    4.094191
     48          8           0      -92.738684  -12.610112    2.952785
     49          6           0      -94.368517  -15.120009    4.091126
     50          6           0      -94.669322  -15.090984    2.580808
     51          6           0      -93.631610  -15.742974    1.655131
     52          7           0      -92.471066  -14.860079    1.500438
     53          6           0      -91.354381  -15.127637    0.846861
     54          7           0      -91.208660  -16.251362    0.122946
     55          7           0      -90.319558  -14.261804    0.932774
     56          8           0      -93.510711  -11.861283    4.869276
     57          1           0      -93.905764  -12.131414    5.749939
     58          1           0      -92.016556  -14.059264    6.327574
     59          1           0      -92.262666  -14.746589    4.153033
     60          1           0      -94.211149  -16.158749    4.405433
     61          1           0      -95.264956  -14.764071    4.597616
     62          1           0      -94.860066  -14.066190    2.241720
     63          1           0      -95.614346  -15.625226    2.437183
     64          1           0      -93.309290  -16.712557    2.059771
     65          1           0      -94.090011  -15.917963    0.673030
     66          1           0      -92.540267  -13.936708    1.975276
     67          1           0      -90.305218  -16.536181   -0.226450
     68          1           0      -91.971494  -16.902649    0.015055
     69          1           0      -90.458337  -13.394419    1.437445
     70          1           0      -89.606305  -14.249633    0.216928
 ---------------------------------------------------------------------

 SCF Done:  E(RB3LYP) =  -1582.22319436     A.U. after    1 cycles

 Alpha  occ. eigenvalues --  -19.29378 -19.25632 -19.22638 -19.20826 -14.52905
 Alpha  occ. eigenvalues --  -14.51986 -14.50825 -14.47562 -14.46157 -14.45312
 Alpha  occ. eigenvalues --  -14.39601 -10.48490 -10.43756 -10.39206 -10.39147
 Alpha  occ. eigenvalues --  -10.36840 -10.36584 -10.33661 -10.31884 -10.31812
 Alpha  occ. eigenvalues --  -10.31336 -10.29360 -10.29292 -10.27856 -10.27212
 Alpha  occ. eigenvalues --  -10.26779 -10.26391 -10.26019 -10.26017 -10.25859
 Alpha  occ. eigenvalues --  -10.25724 -10.25646 -10.25265 -10.23626  -1.21375
 Alpha  occ. eigenvalues --   -1.17051  -1.14703  -1.13195  -1.12661  -1.06124
 Alpha  occ. eigenvalues --   -1.05412  -1.05224  -1.03666  -1.02334  -0.97268
 Alpha  occ. eigenvalues --   -0.92791  -0.91444  -0.89541  -0.87710  -0.87203
 Alpha  occ. eigenvalues --   -0.83548  -0.81912  -0.81327  -0.80808  -0.79274
 Alpha  occ. eigenvalues --   -0.78958  -0.78426  -0.74985  -0.74182  -0.73811
 Alpha  occ. eigenvalues --   -0.72474  -0.70825  -0.70353  -0.69883  -0.69660
 Alpha  occ. eigenvalues --   -0.67208  -0.66782  -0.65603  -0.65078  -0.64701
 Alpha  occ. eigenvalues --   -0.64021  -0.63331  -0.62819  -0.62088  -0.61121
 Alpha  occ. eigenvalues --   -0.60923  -0.60568  -0.59084  -0.57714  -0.56747
 Alpha  occ. eigenvalues --   -0.56497  -0.56208  -0.55842  -0.55548  -0.55034
 Alpha  occ. eigenvalues --   -0.54332  -0.53880  -0.53180  -0.52894  -0.52461
 Alpha  occ. eigenvalues --   -0.51907  -0.51276  -0.50854  -0.50171  -0.49469
 Alpha  occ. eigenvalues --   -0.49091  -0.48972  -0.48664  -0.48113  -0.47865
 Alpha  occ. eigenvalues --   -0.47574  -0.46968  -0.46413  -0.45914  -0.45345
 Alpha  occ. eigenvalues --   -0.45139  -0.44864  -0.44052  -0.43694  -0.43034
 Alpha  occ. eigenvalues --   -0.42864  -0.42501  -0.41559  -0.40994  -0.40910
 Alpha  occ. eigenvalues --   -0.40866  -0.40483  -0.39923  -0.39655  -0.36843
 Alpha  occ. eigenvalues --   -0.36121  -0.35019  -0.34911  -0.34599  -0.32013
 Alpha  occ. eigenvalues --   -0.29768  -0.27738
 Alpha virt. eigenvalues --   -0.12524  -0.11628  -0.09346  -0.08758  -0.08482
 Alpha virt. eigenvalues --   -0.07896  -0.05213  -0.04980  -0.03569  -0.03372
 Alpha virt. eigenvalues --   -0.02517  -0.01893  -0.00843  -0.00710   0.00117

 Mulliken charges:
               1
     1  N   -0.693122
     2  C   -0.060896
     3  C    0.576968
     4  O   -0.565230
     5  C   -0.362770
     6  C    0.058465
     7  C    0.019380
     8  C    0.079646
     9  C    0.316229
    10  C   -0.227954
    11  N   -0.689176
    12  C   -0.154763
    13  C   -0.145752
    14  C   -0.153549
    15  H    0.160820
    16  H    0.179654
    17  H    0.129364
    18  H    0.172965
    19  H    0.340495
    20  H    0.089960
    21  H    0.142475
    22  H    0.121455
    23  H    0.140529
    24  H    0.313485
    25  H    0.319589
    26  N   -0.612835
    27  C   -0.042094
    28  C    0.613463
    29  O   -0.469140
    30  C   -0.060776
    31  C   -0.267212
    32  C   -0.485034
    33  C   -0.453530
    34  H    0.356818
    35  H    0.152770
    36  H    0.175056
    37  H    0.123522
    38  H    0.153405
    39  H    0.179036
    40  H    0.145692
    41  H    0.135756
    42  H    0.150211
    43  H    0.165280
    44  H    0.155219
    45  N   -0.639568
    46  C   -0.061135
    47  C    0.617171
    48  O   -0.519627
    49  C   -0.319923
    50  C   -0.329335
    51  C   -0.152350
    52  N   -0.638426
    53  C    0.807984
    54  N   -0.763201
    55  N   -0.763450
    56  O   -0.555395
    57  H    0.487879
    58  H    0.346132
    59  H    0.168929
    60  H    0.169136
    61  H    0.204821
    62  H    0.193293
    63  H    0.192204
    64  H    0.174088
    65  H    0.185920
    66  H    0.429823
    67  H    0.383404
    68  H    0.388658
    69  H    0.392777
    70  H    0.376319
 Sum of Mulliken charges =   1.00000

 Dipole moment (field-independent basis, Debye):
    X=           -449.8176    Y=            -74.0537    Z=              8.7773  Tot=            455.9571
 Quadrupole moment (field-independent basis, Debye-Ang):
   XX=          42003.0075   YY=            957.3706   ZZ=           -155.9761
   XY=           6916.7563   XZ=           -855.5707   YZ=           -138.7924

 Normal termination of Gaussian 16 at Tue May 24 23:10:42 2022.
