 Gaussian 16, Revision C.01,
 Gaussian 16:  ES64L-G16RevC.01  3-Jul-2019

 ----------------------------------------------------------------------
 # B3LYP/6-31G* empiricaldispersion=gd3 guess=read geom=check nosymm in
 tegral(ultrafinegrid)
 ----------------------------------------------------------------------

 ------------------------------------------------------
 Candidate Structure: Conf:472 Charge calc in gas phase
 ------------------------------------------------------
 Structure from the checkpoint file:  "conf-472.chk"
 Charge =  1 Multiplicity = 1

                          Input orientation:
 ---------------------------------------------------------------------
 Center     Atomic      Atomic             Coordinates (Angstroms)
 Number     Number       Type             X           Y           Z
 ---------------------------------------------------------------------
      1          7           0      -93.475506  -14.555121    4.737342
      2          6           0      -94.542589  -15.134456    5.634613
      3          6           0      -95.536262  -15.786013    4.651063
      4          8           0      -95.095171  -16.653174    3.903134
      5          6           0      -95.006327  -14.065949    6.635614
      6          6           0      -93.852446  -13.551112    7.445212
      7          6           0      -93.302683  -12.290286    7.375727
      8          6           0      -93.068171  -14.292082    8.404729
      9          6           0      -92.059543  -13.413454    8.883235
     10          6           0      -93.127813  -15.603640    8.910231
     11          7           0      -92.226785  -12.203918    8.233694
     12          6           0      -91.115968  -13.807753    9.837588
     13          6           0      -92.193125  -15.999704    9.857157
     14          6           0      -91.196897  -15.110535   10.313901
     15          1           0      -94.067062  -15.961352    6.169104
     16          1           0      -95.490326  -13.242195    6.100376
     17          1           0      -95.757025  -14.536115    7.284430
     18          1           0      -93.621588  -11.436543    6.792686
     19          1           0      -91.694465  -11.367371    8.418298
     20          1           0      -93.901909  -16.292589    8.580864
     21          1           0      -90.352685  -13.122578   10.195230
     22          1           0      -92.229244  -17.007513   10.259687
     23          1           0      -90.481756  -15.450215   11.056994
     24          1           0      -92.731704  -14.138251    5.308387
     25          1           0      -93.109024  -15.304211    4.139551
     26          7           0      -96.806142  -15.335110    4.646267
     27          6           0      -97.842773  -15.891502    3.766252
     28          6           0      -97.379031  -15.858798    2.283328
     29          8           0      -97.353533  -16.870220    1.602921
     30          6           0      -98.306134  -17.310719    4.177233
     31          6           0      -99.656949  -17.626637    3.497133
     32          6           0      -98.409524  -17.438458    5.703273
     33          6           0     -100.018341  -19.115454    3.514196
     34          1           0      -97.049487  -14.543810    5.224722
     35          1           0      -98.696493  -15.214443    3.875147
     36          1           0      -97.554167  -18.012614    3.803550
     37          1           0     -100.447568  -17.043729    3.994761
     38          1           0      -99.623142  -17.295362    2.454989
     39          1           0      -97.437449  -17.327194    6.193736
     40          1           0      -99.089651  -16.684071    6.121897
     41          1           0      -98.800094  -18.421832    5.978742
     42          1           0     -100.972462  -19.288196    3.004855
     43          1           0     -100.114619  -19.508656    4.532113
     44          1           0      -99.251074  -19.701856    2.996087
     45          7           0      -96.988841  -14.660004    1.720247
     46          6           0      -97.072733  -13.261451    2.144323
     47          6           0      -96.068544  -12.912928    3.274417
     48          8           0      -96.480941  -12.382603    4.327993
     49          6           0      -98.524929  -12.784866    2.365755
     50          6           0      -98.758421  -11.299084    2.720733
     51          6           0      -97.981657  -10.255257    1.904456
     52          7           0      -96.565166  -10.233667    2.321678
     53          6           0      -95.520700  -10.029845    1.517774
     54          7           0      -95.670794   -9.288785    0.403823
     55          7           0      -94.334729  -10.572803    1.825357
     56          8           0      -94.834719  -13.111281    2.975879
     57          1           0      -93.924106  -13.819295    4.091852
     58          1           0      -96.664145  -14.817453    0.774739
     59          1           0      -96.677295  -12.715013    1.279965
     60          1           0      -99.070267  -13.028892    1.445964
     61          1           0      -98.987680  -13.372694    3.162793
     62          1           0      -98.542932  -11.138515    3.780787
     63          1           0      -99.823834  -11.083780    2.581125
     64          1           0      -98.023185  -10.480135    0.831706
     65          1           0      -98.422406   -9.263588    2.060577
     66          1           0      -96.371408  -10.657795    3.229527
     67          1           0      -94.953625   -9.256649   -0.305938
     68          1           0      -96.447632   -8.650203    0.310234
     69          1           0      -94.321824  -11.474451    2.332930
     70          1           0      -93.506653  -10.299087    1.315231
 ---------------------------------------------------------------------

 SCF Done:  E(RB3LYP) =  -1582.24262488     A.U. after    1 cycles

 Alpha  occ. eigenvalues --  -19.22063 -19.21552 -19.21497 -19.18851 -14.54047
 Alpha  occ. eigenvalues --  -14.52329 -14.50677 -14.50328 -14.46962 -14.46365
 Alpha  occ. eigenvalues --  -14.44015 -10.47653 -10.39497 -10.39141 -10.36730
 Alpha  occ. eigenvalues --  -10.35901 -10.35569 -10.33292 -10.32032 -10.31461
 Alpha  occ. eigenvalues --  -10.30403 -10.29916 -10.29888 -10.28988 -10.27933
 Alpha  occ. eigenvalues --  -10.27089 -10.26900 -10.26839 -10.26284 -10.25961
 Alpha  occ. eigenvalues --  -10.25557 -10.24142 -10.23799 -10.22439  -1.16295
 Alpha  occ. eigenvalues --   -1.15096  -1.14068  -1.11121  -1.09004  -1.06818
 Alpha  occ. eigenvalues --   -1.06146  -1.05295  -1.04100  -1.02728  -1.00003
 Alpha  occ. eigenvalues --   -0.92235  -0.90717  -0.90585  -0.88050  -0.85501
 Alpha  occ. eigenvalues --   -0.84871  -0.81777  -0.81288  -0.80245  -0.79404
 Alpha  occ. eigenvalues --   -0.77758  -0.77323  -0.76450  -0.73510  -0.71533
 Alpha  occ. eigenvalues --   -0.70633  -0.70608  -0.69573  -0.69362  -0.68729
 Alpha  occ. eigenvalues --   -0.68131  -0.67231  -0.66432  -0.65462  -0.64937
 Alpha  occ. eigenvalues --   -0.64541  -0.62841  -0.62475  -0.62005  -0.61230
 Alpha  occ. eigenvalues --   -0.60157  -0.59811  -0.59671  -0.57641  -0.57119
 Alpha  occ. eigenvalues --   -0.56361  -0.55389  -0.55107  -0.54848  -0.54256
 Alpha  occ. eigenvalues --   -0.53456  -0.53134  -0.52728  -0.52079  -0.51704
 Alpha  occ. eigenvalues --   -0.51425  -0.51117  -0.50739  -0.50681  -0.49912
 Alpha  occ. eigenvalues --   -0.49154  -0.48893  -0.48607  -0.48249  -0.47572
 Alpha  occ. eigenvalues --   -0.47161  -0.46429  -0.46205  -0.45523  -0.45241
 Alpha  occ. eigenvalues --   -0.44496  -0.44015  -0.43516  -0.43400  -0.42980
 Alpha  occ. eigenvalues --   -0.41729  -0.41583  -0.41510  -0.40309  -0.39963
 Alpha  occ. eigenvalues --   -0.38667  -0.38339  -0.38253  -0.37019  -0.36414
 Alpha  occ. eigenvalues --   -0.35606  -0.35514  -0.34971  -0.32498  -0.32045
 Alpha  occ. eigenvalues --   -0.30687  -0.29206
 Alpha virt. eigenvalues --   -0.12602  -0.09682  -0.09479  -0.08713  -0.07483
 Alpha virt. eigenvalues --   -0.06122  -0.05708  -0.04063  -0.04012  -0.02833
 Alpha virt. eigenvalues --   -0.02291  -0.01392  -0.00797  -0.00658   0.00083

 Mulliken charges:
               1
     1  N   -0.761267
     2  C   -0.107936
     3  C    0.627540
     4  O   -0.513945
     5  C   -0.412452
     6  C    0.012241
     7  C   -0.010502
     8  C    0.088115
     9  C    0.309290
    10  C   -0.215179
    11  N   -0.682554
    12  C   -0.157418
    13  C   -0.136690
    14  C   -0.147885
    15  H    0.217132
    16  H    0.214233
    17  H    0.182515
    18  H    0.162139
    19  H    0.341346
    20  H    0.129434
    21  H    0.143301
    22  H    0.145686
    23  H    0.149493
    24  H    0.389599
    25  H    0.405922
    26  N   -0.624941
    27  C   -0.062941
    28  C    0.626310
    29  O   -0.482441
    30  C   -0.067443
    31  C   -0.265924
    32  C   -0.459484
    33  C   -0.452718
    34  H    0.365480
    35  H    0.160735
    36  H    0.180109
    37  H    0.120001
    38  H    0.157116
    39  H    0.133454
    40  H    0.131242
    41  H    0.168849
    42  H    0.152191
    43  H    0.146671
    44  H    0.162152
    45  N   -0.612603
    46  C   -0.016539
    47  C    0.592851
    48  O   -0.566944
    49  C   -0.268474
    50  C   -0.309065
    51  C   -0.158156
    52  N   -0.604239
    53  C    0.771292
    54  N   -0.751030
    55  N   -0.779120
    56  O   -0.637407
    57  H    0.434255
    58  H    0.338866
    59  H    0.136766
    60  H    0.157881
    61  H    0.161685
    62  H    0.187853
    63  H    0.172606
    64  H    0.174226
    65  H    0.182906
    66  H    0.390127
    67  H    0.378104
    68  H    0.385797
    69  H    0.416865
    70  H    0.360920
 Sum of Mulliken charges =   1.00000

 Dipole moment (field-independent basis, Debye):
    X=           -455.0425    Y=            -51.8084    Z=             16.3030  Tot=            458.2724
 Quadrupole moment (field-independent basis, Debye-Ang):
   XX=          42954.7329   YY=            369.8575   ZZ=            -90.7643
   XY=           4898.9793   XZ=          -1520.9909   YZ=           -218.9930

 Normal termination of Gaussian 16 at Tue May 24 23:10:43 2022.
