 Gaussian 16, Revision C.01,
 Gaussian 16:  ES64L-G16RevC.01  3-Jul-2019

 ----------------------------------------------------------------------
 # B3LYP/6-31G* empiricaldispersion=gd3 guess=read geom=check nosymm in
 tegral(ultrafinegrid)
 ----------------------------------------------------------------------

 ------------------------------------------------------
 Candidate Structure: Conf:112 Charge calc in gas phase
 ------------------------------------------------------
 Structure from the checkpoint file:  "conf-112.chk"
 Charge =  1 Multiplicity = 1

                          Input orientation:
 ---------------------------------------------------------------------
 Center     Atomic      Atomic             Coordinates (Angstroms)
 Number     Number       Type             X           Y           Z
 ---------------------------------------------------------------------
      1          7           0      -98.468412  -15.886272    6.641173
      2          6           0      -97.999156  -15.460346    5.337763
      3          6           0      -97.323739  -14.078161    5.234811
      4          8           0      -97.009020  -13.625510    4.121956
      5          6           0      -99.126646  -15.599326    4.276061
      6          6           0      -99.173172  -16.983182    3.712509
      7          6           0     -100.074879  -17.986761    3.952832
      8          6           0      -98.174773  -17.528280    2.827783
      9          6           0      -98.536697  -18.877181    2.564815
     10          6           0      -97.011007  -17.000706    2.241085
     11          7           0      -99.700333  -19.127165    3.265036
     12          6           0      -97.771843  -19.702218    1.734591
     13          6           0      -96.246135  -17.819818    1.418839
     14          6           0      -96.623859  -19.156023    1.169140
     15          1           0      -97.196433  -16.148726    5.041276
     16          1           0     -100.081070  -15.322884    4.740196
     17          1           0      -98.938758  -14.880881    3.472060
     18          1           0     -100.962703  -17.982833    4.570088
     19          1           0     -100.217650  -19.992072    3.248058
     20          1           0      -96.723457  -15.966502    2.417790
     21          1           0      -98.061940  -20.730540    1.536515
     22          1           0      -95.348609  -17.424513    0.950818
     23          1           0      -96.009570  -19.770905    0.517356
     24          1           0      -97.755610  -16.114925    7.323639
     25          1           0      -99.201054  -15.308728    7.039895
     26          7           0      -97.031189  -13.455997    6.389485
     27          6           0      -96.389950  -12.151643    6.588900
     28          6           0      -96.156909  -11.400080    5.250093
     29          8           0      -97.000193  -10.627263    4.834618
     30          6           0      -97.218816  -11.248136    7.539243
     31          6           0      -96.390585   -9.998915    7.912977
     32          6           0      -97.660768  -12.012002    8.798216
     33          6           0      -97.228662   -8.861272    8.506456
     34          1           0      -97.363454  -13.920778    7.224554
     35          1           0      -95.425363  -12.330589    7.074741
     36          1           0      -98.103385  -10.927485    6.979591
     37          1           0      -95.601624  -10.293235    8.621662
     38          1           0      -95.883143   -9.614786    7.020670
     39          1           0      -98.110569  -11.328804    9.523035
     40          1           0      -98.421413  -12.771929    8.583775
     41          1           0      -96.809298  -12.498020    9.294991
     42          1           0      -97.995544   -8.536837    7.794273
     43          1           0      -96.597850   -7.996478    8.737235
     44          1           0      -97.731713   -9.154833    9.434002
     45          7           0      -94.905538  -11.403940    4.633504
     46          6           0      -93.818533  -12.366078    4.446065
     47          6           0      -93.845643  -12.987730    3.020046
     48          8           0      -92.790625  -13.125435    2.393196
     49          6           0      -93.683230  -13.449969    5.536466
     50          6           0      -92.537275  -14.469556    5.366757
     51          6           0      -91.102654  -13.917546    5.444777
     52          7           0      -90.756997  -13.224652    4.200815
     53          6           0      -89.723259  -12.429090    3.989031
     54          7           0      -88.698936  -12.341807    4.856377
     55          7           0      -89.709549  -11.660901    2.877209
     56          8           0      -94.980435  -13.340498    2.488496
     57          1           0      -95.762713  -13.312227    3.123086
     58          1           0      -94.956815  -10.739529    3.865346
     59          1           0      -92.895452  -11.776351    4.456247
     60          1           0      -93.545314  -12.934353    6.493298
     61          1           0      -94.617554  -14.013359    5.610129
     62          1           0      -92.650323  -15.036646    4.434672
     63          1           0      -92.638107  -15.199881    6.176430
     64          1           0      -91.005642  -13.223616    6.291319
     65          1           0      -90.406788  -14.750740    5.605681
     66          1           0      -91.456340  -13.272480    3.432165
     67          1           0      -88.042050  -11.576327    4.807979
     68          1           0      -88.649358  -12.944257    5.664309
     69          1           0      -90.488158  -11.739105    2.232193
     70          1           0      -88.830042  -11.351920    2.486639
 ---------------------------------------------------------------------

 SCF Done:  E(RB3LYP) =  -1582.21750791     A.U. after    1 cycles

 Alpha  occ. eigenvalues --  -19.29211 -19.25500 -19.22489 -19.21009 -14.53133
 Alpha  occ. eigenvalues --  -14.52078 -14.51338 -14.47052 -14.46199 -14.43033
 Alpha  occ. eigenvalues --  -14.41087 -10.48720 -10.43632 -10.39174 -10.38947
 Alpha  occ. eigenvalues --  -10.37375 -10.36489 -10.33671 -10.32761 -10.32469
 Alpha  occ. eigenvalues --  -10.31209 -10.27954 -10.27111 -10.26904 -10.26663
 Alpha  occ. eigenvalues --  -10.26160 -10.25740 -10.24384 -10.23917 -10.23638
 Alpha  occ. eigenvalues --  -10.23427 -10.23362 -10.23300 -10.23134  -1.21248
 Alpha  occ. eigenvalues --   -1.17320  -1.14453  -1.13173  -1.12500  -1.06507
 Alpha  occ. eigenvalues --   -1.05541  -1.03516  -1.02871  -1.02445  -0.97838
 Alpha  occ. eigenvalues --   -0.93297  -0.89993  -0.88818  -0.87456  -0.85843
 Alpha  occ. eigenvalues --   -0.83310  -0.81576  -0.80558  -0.79849  -0.78940
 Alpha  occ. eigenvalues --   -0.78452  -0.76888  -0.75153  -0.74045  -0.73666
 Alpha  occ. eigenvalues --   -0.72401  -0.71104  -0.70604  -0.69425  -0.67246
 Alpha  occ. eigenvalues --   -0.67127  -0.65792  -0.65351  -0.65177  -0.64429
 Alpha  occ. eigenvalues --   -0.63985  -0.63240  -0.62084  -0.61524  -0.61260
 Alpha  occ. eigenvalues --   -0.60335  -0.59134  -0.59000  -0.58426  -0.57759
 Alpha  occ. eigenvalues --   -0.56721  -0.56374  -0.55731  -0.54241  -0.54145
 Alpha  occ. eigenvalues --   -0.53762  -0.53442  -0.53083  -0.52432  -0.52247
 Alpha  occ. eigenvalues --   -0.51873  -0.50851  -0.49936  -0.49450  -0.48947
 Alpha  occ. eigenvalues --   -0.48913  -0.48437  -0.48006  -0.47730  -0.47407
 Alpha  occ. eigenvalues --   -0.46933  -0.46331  -0.45946  -0.45749  -0.45439
 Alpha  occ. eigenvalues --   -0.44278  -0.43894  -0.43883  -0.43448  -0.42820
 Alpha  occ. eigenvalues --   -0.42321  -0.41742  -0.41377  -0.40731  -0.40535
 Alpha  occ. eigenvalues --   -0.40238  -0.40131  -0.38752  -0.38257  -0.37798
 Alpha  occ. eigenvalues --   -0.36211  -0.35432  -0.34371  -0.32703  -0.31344
 Alpha  occ. eigenvalues --   -0.27236  -0.25367
 Alpha virt. eigenvalues --   -0.12978  -0.11724  -0.08599  -0.08139  -0.08131
 Alpha virt. eigenvalues --   -0.06062  -0.05098  -0.03656  -0.03255  -0.02863
 Alpha virt. eigenvalues --   -0.02416  -0.01735  -0.00857  -0.00134   0.00699

 Mulliken charges:
               1
     1  N   -0.734038
     2  C   -0.047866
     3  C    0.613526
     4  O   -0.583307
     5  C   -0.352749
     6  C    0.068141
     7  C    0.008660
     8  C    0.078362
     9  C    0.316203
    10  C   -0.224596
    11  N   -0.692885
    12  C   -0.161238
    13  C   -0.144321
    14  C   -0.151197
    15  H    0.189150
    16  H    0.148397
    17  H    0.189105
    18  H    0.155331
    19  H    0.333665
    20  H    0.123199
    21  H    0.131594
    22  H    0.119494
    23  H    0.129580
    24  H    0.312770
    25  H    0.316446
    26  N   -0.622505
    27  C   -0.004018
    28  C    0.593442
    29  O   -0.469753
    30  C   -0.074811
    31  C   -0.270850
    32  C   -0.490766
    33  C   -0.453269
    34  H    0.325083
    35  H    0.142808
    36  H    0.178293
    37  H    0.124528
    38  H    0.153357
    39  H    0.181912
    40  H    0.142149
    41  H    0.140772
    42  H    0.166348
    43  H    0.155965
    44  H    0.151903
    45  N   -0.628940
    46  C   -0.052378
    47  C    0.606496
    48  O   -0.523811
    49  C   -0.306210
    50  C   -0.327295
    51  C   -0.150539
    52  N   -0.630634
    53  C    0.800282
    54  N   -0.759887
    55  N   -0.763311
    56  O   -0.545987
    57  H    0.497068
    58  H    0.343928
    59  H    0.161011
    60  H    0.171675
    61  H    0.184734
    62  H    0.193163
    63  H    0.184331
    64  H    0.174099
    65  H    0.189035
    66  H    0.426048
    67  H    0.384762
    68  H    0.387574
    69  H    0.395299
    70  H    0.377471
 Sum of Mulliken charges =   1.00000

 Dipole moment (field-independent basis, Debye):
    X=           -440.7034    Y=            -64.0100    Z=             28.4971  Tot=            446.2386
 Quadrupole moment (field-independent basis, Debye-Ang):
   XX=          40326.2674   YY=            686.7257   ZZ=            -20.5474
   XY=           5919.4535   XZ=          -2652.9895   YZ=           -382.5655

 Normal termination of Gaussian 16 at Tue May 24 23:10:38 2022.
