 Gaussian 16, Revision C.01,
 Gaussian 16:  ES64L-G16RevC.01  3-Jul-2019

 ----------------------------------------------------------------------
 # B3LYP/6-31G* empiricaldispersion=gd3 guess=read geom=check nosymm in
 tegral(ultrafinegrid)
 ----------------------------------------------------------------------

 ------------------------------------------------------
 Candidate Structure: Conf:584 Charge calc in gas phase
 ------------------------------------------------------
 Structure from the checkpoint file:  "conf-584.chk"
 Charge =  1 Multiplicity = 1

                          Input orientation:
 ---------------------------------------------------------------------
 Center     Atomic      Atomic             Coordinates (Angstroms)
 Number     Number       Type             X           Y           Z
 ---------------------------------------------------------------------
      1          7           0      -97.969966  -14.557315    7.361484
      2          6           0      -96.543732  -14.571399    7.024313
      3          6           0      -96.341235  -14.438596    5.522605
      4          8           0      -95.218536  -14.218670    5.024199
      5          6           0      -95.890570  -15.921660    7.448243
      6          6           0      -95.962882  -16.134779    8.926112
      7          6           0      -96.756839  -17.033743    9.599718
      8          6           0      -95.250177  -15.383540    9.930133
      9          6           0      -95.656219  -15.885433   11.195904
     10          6           0      -94.308279  -14.341467    9.877715
     11          7           0      -96.577738  -16.888123   10.961111
     12          6           0      -95.150365  -15.377576   12.396894
     13          6           0      -93.803714  -13.832870   11.067815
     14          6           0      -94.221992  -14.346064   12.313829
     15          1           0      -95.971704  -13.760495    7.497688
     16          1           0      -96.396791  -16.733619    6.911310
     17          1           0      -94.851519  -15.906075    7.101378
     18          1           0      -97.427310  -17.786534    9.206958
     19          1           0      -97.006095  -17.463778   11.669495
     20          1           0      -93.972574  -13.947414    8.921469
     21          1           0      -95.468972  -15.773794   13.357068
     22          1           0      -93.072577  -13.029889   11.043557
     23          1           0      -93.808018  -13.928916   13.227254
     24          1           0      -98.119328  -15.130265    8.191574
     25          1           0      -98.279511  -13.618301    7.599576
     26          7           0      -97.425562  -14.613366    4.765100
     27          6           0      -97.369157  -14.793855    3.319377
     28          6           0      -96.015972  -15.447175    2.960096
     29          8           0      -95.827007  -16.610781    3.271010
     30          6           0      -98.515138  -15.728457    2.846508
     31          6           0      -98.466511  -15.913747    1.314118
     32          6           0      -99.882233  -15.186127    3.293679
     33          6           0      -99.362176  -17.046920    0.800351
     34          1           0      -98.266691  -14.820896    5.301218
     35          1           0      -97.501332  -13.829534    2.824372
     36          1           0      -98.330918  -16.702545    3.316755
     37          1           0      -98.750759  -14.965611    0.832689
     38          1           0      -97.436656  -16.121523    1.003310
     39          1           0     -100.043406  -14.169140    2.914604
     40          1           0     -100.687745  -15.817017    2.908769
     41          1           0     -100.001452  -15.158189    4.382175
     42          1           0      -99.086675  -18.000257    1.265850
     43          1           0      -99.254802  -17.161812   -0.283481
     44          1           0     -100.422424  -16.866475    1.006075
     45          7           0      -95.112271  -14.830064    2.085961
     46          6           0      -94.595426  -13.461364    1.972858
     47          6           0      -93.222591  -13.288555    2.675882
     48          8           0      -92.313584  -12.685985    2.097474
     49          6           0      -95.574611  -12.343134    2.399661
     50          6           0      -95.074743  -10.888825    2.267790
     51          6           0      -94.748380  -10.393080    0.849231
     52          7           0      -93.450416  -10.946551    0.418884
     53          6           0      -93.061126  -11.246780   -0.815140
     54          7           0      -93.647313  -10.696098   -1.898465
     55          7           0      -92.087300  -12.166083   -0.980984
     56          8           0      -93.016591  -13.776452    3.874094
     57          1           0      -93.833943  -14.150901    4.291883
     58          1           0      -94.432562  -15.540969    1.824816
     59          1           0      -94.358014  -13.319416    0.912382
     60          1           0      -96.475503  -12.453333    1.785478
     61          1           0      -95.860137  -12.510820    3.439205
     62          1           0      -94.206498  -10.710759    2.915678
     63          1           0      -95.868451  -10.243758    2.659771
     64          1           0      -95.528694  -10.704601    0.143014
     65          1           0      -94.701633   -9.297778    0.844182
     66          1           0      -92.898440  -11.404122    1.157138
     67          1           0      -93.435981  -11.027379   -2.831228
     68          1           0      -94.210605   -9.860662   -1.815757
     69          1           0      -91.725751  -12.634121   -0.153395
     70          1           0      -91.497109  -12.152244   -1.803043
 ---------------------------------------------------------------------

 SCF Done:  E(RB3LYP) =  -1582.23421398     A.U. after    1 cycles

 Alpha  occ. eigenvalues --  -19.28319 -19.24947 -19.21907 -19.20522 -14.52609
 Alpha  occ. eigenvalues --  -14.51490 -14.50512 -14.45475 -14.45049 -14.44057
 Alpha  occ. eigenvalues --  -14.40620 -10.48149 -10.43134 -10.38315 -10.38025
 Alpha  occ. eigenvalues --  -10.36534 -10.35787 -10.32422 -10.31902 -10.31284
 Alpha  occ. eigenvalues --  -10.30781 -10.28377 -10.27721 -10.27670 -10.26746
 Alpha  occ. eigenvalues --  -10.25996 -10.25734 -10.24703 -10.24479 -10.24354
 Alpha  occ. eigenvalues --  -10.24322 -10.24211 -10.23956 -10.23618  -1.20591
 Alpha  occ. eigenvalues --   -1.16474  -1.14018  -1.12431  -1.11901  -1.05694
 Alpha  occ. eigenvalues --   -1.04763  -1.03922  -1.02289  -1.01621  -0.97500
 Alpha  occ. eigenvalues --   -0.92366  -0.89501  -0.89436  -0.86586  -0.86439
 Alpha  occ. eigenvalues --   -0.82997  -0.81067  -0.80635  -0.79222  -0.79085
 Alpha  occ. eigenvalues --   -0.78284  -0.77581  -0.74297  -0.73568  -0.73029
 Alpha  occ. eigenvalues --   -0.72031  -0.70582  -0.70120  -0.68413  -0.67968
 Alpha  occ. eigenvalues --   -0.66407  -0.65153  -0.65140  -0.64932  -0.64477
 Alpha  occ. eigenvalues --   -0.63200  -0.62399  -0.62090  -0.60622  -0.60063
 Alpha  occ. eigenvalues --   -0.59549  -0.59225  -0.58539  -0.58096  -0.57140
 Alpha  occ. eigenvalues --   -0.56083  -0.55483  -0.55018  -0.54471  -0.54102
 Alpha  occ. eigenvalues --   -0.53479  -0.53148  -0.52604  -0.52340  -0.51952
 Alpha  occ. eigenvalues --   -0.51187  -0.50431  -0.49568  -0.49242  -0.48831
 Alpha  occ. eigenvalues --   -0.48607  -0.48203  -0.48075  -0.47996  -0.46926
 Alpha  occ. eigenvalues --   -0.46686  -0.46212  -0.45760  -0.45323  -0.44975
 Alpha  occ. eigenvalues --   -0.44667  -0.43984  -0.43509  -0.43314  -0.42951
 Alpha  occ. eigenvalues --   -0.41820  -0.41286  -0.40824  -0.40806  -0.40456
 Alpha  occ. eigenvalues --   -0.40249  -0.39398  -0.39111  -0.38974  -0.36809
 Alpha  occ. eigenvalues --   -0.35746  -0.34875  -0.33685  -0.33126  -0.32986
 Alpha  occ. eigenvalues --   -0.28027  -0.26378
 Alpha virt. eigenvalues --   -0.12644  -0.11475  -0.08088  -0.07900  -0.07057
 Alpha virt. eigenvalues --   -0.06511  -0.04416  -0.03084  -0.02763  -0.02316
 Alpha virt. eigenvalues --   -0.00931  -0.00162   0.00088   0.00490   0.00905

 Mulliken charges:
               1
     1  N   -0.768537
     2  C   -0.053618
     3  C    0.656341
     4  O   -0.625740
     5  C   -0.374549
     6  C    0.051976
     7  C   -0.008008
     8  C    0.089147
     9  C    0.311896
    10  C   -0.213902
    11  N   -0.687261
    12  C   -0.159181
    13  C   -0.139173
    14  C   -0.149301
    15  H    0.165601
    16  H    0.164341
    17  H    0.181259
    18  H    0.161273
    19  H    0.337520
    20  H    0.125084
    21  H    0.136040
    22  H    0.130746
    23  H    0.138097
    24  H    0.328171
    25  H    0.320330
    26  N   -0.624218
    27  C    0.029196
    28  C    0.586946
    29  O   -0.486637
    30  C   -0.103742
    31  C   -0.267886
    32  C   -0.479765
    33  C   -0.452416
    34  H    0.382848
    35  H    0.139585
    36  H    0.169918
    37  H    0.122517
    38  H    0.151918
    39  H    0.145157
    40  H    0.174529
    41  H    0.154215
    42  H    0.161414
    43  H    0.153546
    44  H    0.154341
    45  N   -0.630317
    46  C   -0.042273
    47  C    0.603167
    48  O   -0.532812
    49  C   -0.308873
    50  C   -0.328741
    51  C   -0.146720
    52  N   -0.613358
    53  C    0.782992
    54  N   -0.755346
    55  N   -0.767186
    56  O   -0.539427
    57  H    0.484951
    58  H    0.338276
    59  H    0.154102
    60  H    0.169129
    61  H    0.203287
    62  H    0.187090
    63  H    0.184653
    64  H    0.174025
    65  H    0.189648
    66  H    0.418456
    67  H    0.382267
    68  H    0.386294
    69  H    0.402881
    70  H    0.373819
 Sum of Mulliken charges =   1.00000

 Dipole moment (field-independent basis, Debye):
    X=           -458.1502    Y=            -58.3438    Z=              6.8488  Tot=            461.9010
 Quadrupole moment (field-independent basis, Debye-Ang):
   XX=          43530.9974   YY=            536.7502   ZZ=            -65.3669
   XY=           5589.4315   XZ=           -707.4472   YZ=           -129.8081

 Normal termination of Gaussian 16 at Tue May 24 23:10:38 2022.
