 Gaussian 16, Revision C.01,
 Gaussian 16:  ES64L-G16RevC.01  3-Jul-2019

 ----------------------------------------------------------------------
 # B3LYP/6-31G* empiricaldispersion=gd3 guess=read geom=check nosymm in
 tegral(ultrafinegrid)
 ----------------------------------------------------------------------

 ------------------------------------------------------
 Candidate Structure: Conf:652 Charge calc in gas phase
 ------------------------------------------------------
 Structure from the checkpoint file:  "conf-652.chk"
 Charge =  1 Multiplicity = 1

                          Input orientation:
 ---------------------------------------------------------------------
 Center     Atomic      Atomic             Coordinates (Angstroms)
 Number     Number       Type             X           Y           Z
 ---------------------------------------------------------------------
      1          7           0      -94.869655  -16.063090    4.045269
      2          6           0      -94.578432  -14.774703    3.312157
      3          6           0      -93.785739  -13.967579    4.362144
      4          8           0      -92.796335  -14.509061    4.851049
      5          6           0      -95.878221  -14.211515    2.710978
      6          6           0      -96.660831  -15.273360    1.996257
      7          6           0      -97.881296  -15.770410    2.391374
      8          6           0      -96.260713  -16.030925    0.833613
      9          6           0      -97.297803  -16.968541    0.573423
     10          6           0      -95.136405  -16.005139   -0.013151
     11          7           0      -98.267299  -16.788105    1.543494
     12          6           0      -97.240325  -17.869469   -0.495055
     13          6           0      -95.074217  -16.899926   -1.072814
     14          6           0      -96.115588  -17.822612   -1.309773
     15          1           0      -93.870760  -15.036005    2.521295
     16          1           0      -96.503627  -13.779227    3.498167
     17          1           0      -95.590043  -13.403147    2.026317
     18          1           0      -98.504143  -15.459044    3.219113
     19          1           0      -99.160121  -17.257020    1.562799
     20          1           0      -94.338069  -15.283862    0.143493
     21          1           0      -98.043842  -18.575929   -0.683147
     22          1           0      -94.215378  -16.887709   -1.737118
     23          1           0      -96.038501  -18.506685   -2.149485
     24          1           0      -95.276189  -16.753874    3.406341
     25          1           0      -93.991148  -16.398111    4.460095
     26          7           0      -94.268141  -12.768454    4.727562
     27          6           0      -93.684235  -11.970094    5.812480
     28          6           0      -93.431804  -12.849147    7.071326
     29          8           0      -92.335529  -12.901468    7.599104
     30          6           0      -92.404594  -11.201095    5.402098
     31          6           0      -92.138632  -10.068378    6.418751
     32          6           0      -92.524169  -10.650923    3.974288
     33          6           0      -90.719357   -9.496095    6.343917
     34          1           0      -95.143818  -12.447695    4.340239
     35          1           0      -94.460594  -11.235470    6.052810
     36          1           0      -91.575205  -11.914312    5.447826
     37          1           0      -92.874975   -9.266645    6.252341
     38          1           0      -92.301651  -10.446303    7.432610
     39          1           0      -93.398037   -9.992935    3.872347
     40          1           0      -91.638752  -10.064295    3.714735
     41          1           0      -92.614099  -11.450302    3.232441
     42          1           0      -90.499612   -9.055902    5.365242
     43          1           0      -89.978853  -10.280880    6.535902
     44          1           0      -90.577882   -8.711512    7.095014
     45          7           0      -94.465866  -13.630789    7.569373
     46          6           0      -95.918670  -13.410136    7.543465
     47          6           0      -96.541957  -13.793723    6.176949
     48          8           0      -97.113016  -12.919084    5.489504
     49          6           0      -96.312067  -12.028174    8.120482
     50          6           0      -97.792958  -11.592438    8.093276
     51          6           0      -98.838953  -12.615737    8.558679
     52          7           0      -99.048441  -13.634770    7.513544
     53          6           0      -99.372997  -14.911118    7.718076
     54          7           0     -100.031830  -15.264746    8.836625
     55          7           0      -99.040771  -15.826525    6.796844
     56          8           0      -96.513319  -15.048869    5.900267
     57          1           0      -95.564184  -15.828206    4.814788
     58          1           0      -94.127715  -14.139852    8.378208
     59          1           0      -96.310769  -14.179399    8.218437
     60          1           0      -95.954327  -12.024738    9.158234
     61          1           0      -95.748257  -11.244105    7.608383
     62          1           0      -98.056803  -11.264263    7.083446
     63          1           0      -97.893207  -10.716338    8.743778
     64          1           0      -98.518745  -13.120786    9.478602
     65          1           0      -99.786727  -12.103282    8.764184
     66          1           0      -98.715758  -13.385539    6.579926
     67          1           0     -100.109480  -16.230508    9.118777
     68          1           0     -100.501880  -14.572662    9.401777
     69          1           0      -98.165494  -15.672736    6.265659
     70          1           0      -99.406836  -16.765196    6.869311
 ---------------------------------------------------------------------

 SCF Done:  E(RB3LYP) =  -1582.24134291     A.U. after    1 cycles

 Alpha  occ. eigenvalues --  -19.21912 -19.21874 -19.21423 -19.19490 -14.54534
 Alpha  occ. eigenvalues --  -14.52247 -14.50487 -14.50084 -14.47333 -14.46515
 Alpha  occ. eigenvalues --  -14.44139 -10.47476 -10.39545 -10.39414 -10.37067
 Alpha  occ. eigenvalues --  -10.36276 -10.35525 -10.33137 -10.32164 -10.31627
 Alpha  occ. eigenvalues --  -10.30821 -10.30036 -10.29839 -10.28942 -10.28121
 Alpha  occ. eigenvalues --  -10.27527 -10.27304 -10.27256 -10.26672 -10.26349
 Alpha  occ. eigenvalues --  -10.25714 -10.24136 -10.23966 -10.22565  -1.16185
 Alpha  occ. eigenvalues --   -1.15004  -1.14365  -1.11612  -1.09425  -1.07140
 Alpha  occ. eigenvalues --   -1.06009  -1.05162  -1.03966  -1.03008  -1.00161
 Alpha  occ. eigenvalues --   -0.92570  -0.90924  -0.90496  -0.88246  -0.85793
 Alpha  occ. eigenvalues --   -0.84711  -0.82146  -0.81521  -0.80462  -0.79277
 Alpha  occ. eigenvalues --   -0.77777  -0.77357  -0.76699  -0.73400  -0.71440
 Alpha  occ. eigenvalues --   -0.70956  -0.70801  -0.69781  -0.69519  -0.69124
 Alpha  occ. eigenvalues --   -0.68444  -0.67806  -0.66414  -0.65353  -0.65260
 Alpha  occ. eigenvalues --   -0.64499  -0.62966  -0.62617  -0.62256  -0.61043
 Alpha  occ. eigenvalues --   -0.60004  -0.59880  -0.59591  -0.57643  -0.57394
 Alpha  occ. eigenvalues --   -0.56464  -0.55463  -0.55214  -0.54688  -0.54290
 Alpha  occ. eigenvalues --   -0.53500  -0.53379  -0.53030  -0.52224  -0.52112
 Alpha  occ. eigenvalues --   -0.51553  -0.51170  -0.51071  -0.50908  -0.50126
 Alpha  occ. eigenvalues --   -0.49512  -0.48880  -0.48827  -0.48570  -0.47736
 Alpha  occ. eigenvalues --   -0.47360  -0.46433  -0.46240  -0.45729  -0.45262
 Alpha  occ. eigenvalues --   -0.44478  -0.44118  -0.43751  -0.43593  -0.42911
 Alpha  occ. eigenvalues --   -0.42057  -0.41924  -0.41667  -0.40259  -0.40048
 Alpha  occ. eigenvalues --   -0.38769  -0.38417  -0.38311  -0.37011  -0.36624
 Alpha  occ. eigenvalues --   -0.35818  -0.35445  -0.35187  -0.33286  -0.32187
 Alpha  occ. eigenvalues --   -0.31075  -0.29508
 Alpha virt. eigenvalues --   -0.12390  -0.10018  -0.09766  -0.09027  -0.07468
 Alpha virt. eigenvalues --   -0.06600  -0.06042  -0.04167  -0.04120  -0.03077
 Alpha virt. eigenvalues --   -0.02465  -0.01464  -0.01044  -0.00786  -0.00214

 Mulliken charges:
               1
     1  N   -0.763091
     2  C   -0.107593
     3  C    0.629208
     4  O   -0.519574
     5  C   -0.407973
     6  C    0.005597
     7  C   -0.001054
     8  C    0.075407
     9  C    0.308619
    10  C   -0.218653
    11  N   -0.683523
    12  C   -0.158022
    13  C   -0.136024
    14  C   -0.148092
    15  H    0.215580
    16  H    0.212163
    17  H    0.183443
    18  H    0.159791
    19  H    0.339433
    20  H    0.131020
    21  H    0.143247
    22  H    0.147000
    23  H    0.150603
    24  H    0.398778
    25  H    0.407598
    26  N   -0.622207
    27  C   -0.057482
    28  C    0.608651
    29  O   -0.474437
    30  C   -0.065464
    31  C   -0.266393
    32  C   -0.459732
    33  C   -0.452473
    34  H    0.373783
    35  H    0.163038
    36  H    0.176706
    37  H    0.120621
    38  H    0.154892
    39  H    0.132557
    40  H    0.168703
    41  H    0.137186
    42  H    0.147747
    43  H    0.162011
    44  H    0.152198
    45  N   -0.607235
    46  C   -0.029715
    47  C    0.607046
    48  O   -0.573391
    49  C   -0.269414
    50  C   -0.309706
    51  C   -0.155013
    52  N   -0.609151
    53  C    0.777605
    54  N   -0.754098
    55  N   -0.783043
    56  O   -0.655602
    57  H    0.448777
    58  H    0.336732
    59  H    0.142404
    60  H    0.153942
    61  H    0.166691
    62  H    0.189076
    63  H    0.172514
    64  H    0.172119
    65  H    0.181675
    66  H    0.394513
    67  H    0.376972
    68  H    0.385852
    69  H    0.419698
    70  H    0.356961
 Sum of Mulliken charges =   1.00000

 Dipole moment (field-independent basis, Debye):
    X=           -473.6384    Y=            -74.3600    Z=             29.1638  Tot=            480.3262
 Quadrupole moment (field-independent basis, Debye-Ang):
   XX=          46511.7663   YY=            985.6206   ZZ=             37.0398
   XY=           7336.3672   XZ=          -2910.2310   YZ=           -431.9397

 Normal termination of Gaussian 16 at Tue May 24 23:10:43 2022.
