 Gaussian 16, Revision C.01,
 Gaussian 16:  ES64L-G16RevC.01  3-Jul-2019

 ----------------------------------------------------------------------
 # B3LYP/6-31G* empiricaldispersion=gd3 guess=read geom=check nosymm in
 tegral(ultrafinegrid)
 ----------------------------------------------------------------------

 ------------------------------------------------------
 Candidate Structure: Conf:841 Charge calc in gas phase
 ------------------------------------------------------
 Structure from the checkpoint file:  "conf-841.chk"
 Charge =  1 Multiplicity = 1

                          Input orientation:
 ---------------------------------------------------------------------
 Center     Atomic      Atomic             Coordinates (Angstroms)
 Number     Number       Type             X           Y           Z
 ---------------------------------------------------------------------
      1          7           0      -95.580040  -15.646331    3.148887
      2          6           0      -94.241730  -15.103333    2.708129
      3          6           0      -93.609096  -14.112889    3.710891
      4          8           0      -92.395096  -13.985506    3.680721
      5          6           0      -94.347255  -14.497573    1.282861
      6          6           0      -95.545698  -13.613831    1.091420
      7          6           0      -95.616476  -12.246600    1.234878
      8          6           0      -96.877948  -14.057089    0.746650
      9          6           0      -97.708685  -12.903757    0.717268
     10          6           0      -97.445741  -15.309271    0.442074
     11          7           0      -96.907678  -11.820572    1.019786
     12          6           0      -99.073861  -12.972506    0.421128
     13          6           0      -98.800671  -15.382663    0.145886
     14          6           0      -99.607521  -14.225094    0.142501
     15          1           0      -93.556453  -15.952873    2.697867
     16          1           0      -93.412556  -13.959519    1.100636
     17          1           0      -94.377943  -15.323125    0.560475
     18          1           0      -94.833724  -11.539353    1.466449
     19          1           0      -97.205209  -10.856577    1.015198
     20          1           0      -96.826700  -16.204489    0.390780
     21          1           0      -99.692431  -12.079809    0.402142
     22          1           0      -99.246462  -16.341128   -0.103017
     23          1           0     -100.662929  -14.312951   -0.096556
     24          1           0      -96.315438  -14.934957    3.073242
     25          1           0      -95.879378  -16.403212    2.528794
     26          7           0      -94.433398  -13.421430    4.534148
     27          6           0      -93.983099  -12.587042    5.657364
     28          6           0      -93.180925  -13.433178    6.689514
     29          8           0      -92.003070  -13.208293    6.910477
     30          6           0      -93.175960  -11.329494    5.262537
     31          6           0      -93.207165  -10.328282    6.437039
     32          6           0      -93.697248  -10.709088    3.961567
     33          6           0      -92.152840   -9.222166    6.330366
     34          1           0      -95.432706  -13.563352    4.490936
     35          1           0      -94.918926  -12.261675    6.124945
     36          1           0      -92.142682  -11.649196    5.106770
     37          1           0      -94.212870   -9.884230    6.501512
     38          1           0      -93.040009  -10.870958    7.374743
     39          1           0      -93.487507  -11.367241    3.115209
     40          1           0      -94.779528  -10.522342    3.996864
     41          1           0      -93.199311   -9.755339    3.764530
     42          1           0      -92.292276   -8.603765    5.436906
     43          1           0      -91.146879   -9.654527    6.287317
     44          1           0      -92.196037   -8.557037    7.199431
     45          7           0      -93.796084  -14.484490    7.343519
     46          6           0      -95.213670  -14.803017    7.539299
     47          6           0      -95.891222  -15.184643    6.202948
     48          8           0      -96.801391  -14.482443    5.716104
     49          6           0      -95.938707  -13.734884    8.389134
     50          6           0      -97.460320  -13.869587    8.598591
     51          6           0      -97.977779  -15.229555    9.087288
     52          7           0      -97.891117  -16.238315    8.012251
     53          6           0      -97.519415  -17.513106    8.159912
     54          7           0      -97.728101  -18.138869    9.333647
     55          7           0      -96.942914  -18.157631    7.139015
     56          8           0      -95.456500  -16.275123    5.668162
     57          1           0      -95.573266  -16.013752    4.189824
     58          1           0      -93.140646  -14.958694    7.952851
     59          1           0      -95.195175  -15.742528    8.102900
     60          1           0      -95.435415  -13.720900    9.364195
     61          1           0      -95.762259  -12.750179    7.946989
     62          1           0      -97.980361  -13.608739    7.672383
     63          1           0      -97.763702  -13.129274    9.347903
     64          1           0      -97.392845  -15.588854    9.941934
     65          1           0      -99.022126  -15.132460    9.405909
     66          1           0      -97.918915  -15.873004    7.063654
     67          1           0      -97.246521  -18.996459    9.562766
     68          1           0      -98.369622  -17.763421   10.017409
     69          1           0      -96.398195  -17.613343    6.447136
     70          1           0      -96.840842  -19.162749    7.163308
 ---------------------------------------------------------------------

 SCF Done:  E(RB3LYP) =  -1582.23852271     A.U. after    1 cycles

 Alpha  occ. eigenvalues --  -19.23059 -19.22376 -19.20430 -19.19167 -14.53446
 Alpha  occ. eigenvalues --  -14.52623 -14.51441 -14.50681 -14.47114 -14.45356
 Alpha  occ. eigenvalues --  -14.44381 -10.48119 -10.40309 -10.38386 -10.36785
 Alpha  occ. eigenvalues --  -10.35973 -10.35638 -10.33748 -10.31858 -10.31197
 Alpha  occ. eigenvalues --  -10.30865 -10.30181 -10.30159 -10.29269 -10.27890
 Alpha  occ. eigenvalues --  -10.27799 -10.27755 -10.27584 -10.26972 -10.26919
 Alpha  occ. eigenvalues --  -10.25389 -10.24350 -10.24232 -10.22757  -1.16821
 Alpha  occ. eigenvalues --   -1.16085  -1.12951  -1.11338  -1.08846  -1.07053
 Alpha  occ. eigenvalues --   -1.06845  -1.05820  -1.04456  -1.01808  -1.00344
 Alpha  occ. eigenvalues --   -0.92795  -0.90955  -0.90469  -0.88056  -0.85811
 Alpha  occ. eigenvalues --   -0.85239  -0.82425  -0.81355  -0.80480  -0.79925
 Alpha  occ. eigenvalues --   -0.78093  -0.77765  -0.76267  -0.73958  -0.71968
 Alpha  occ. eigenvalues --   -0.71130  -0.70664  -0.69927  -0.69439  -0.68378
 Alpha  occ. eigenvalues --   -0.68176  -0.66986  -0.66262  -0.65795  -0.65203
 Alpha  occ. eigenvalues --   -0.64916  -0.63031  -0.62526  -0.62146  -0.61804
 Alpha  occ. eigenvalues --   -0.60442  -0.60206  -0.58421  -0.58001  -0.57333
 Alpha  occ. eigenvalues --   -0.57090  -0.56079  -0.55459  -0.54744  -0.54378
 Alpha  occ. eigenvalues --   -0.54157  -0.53466  -0.52789  -0.52417  -0.52036
 Alpha  occ. eigenvalues --   -0.51817  -0.51758  -0.51030  -0.50566  -0.50226
 Alpha  occ. eigenvalues --   -0.49875  -0.49101  -0.48464  -0.48098  -0.47476
 Alpha  occ. eigenvalues --   -0.46843  -0.46511  -0.46383  -0.45720  -0.45474
 Alpha  occ. eigenvalues --   -0.44706  -0.44185  -0.44058  -0.43662  -0.43216
 Alpha  occ. eigenvalues --   -0.42440  -0.42182  -0.41793  -0.40647  -0.39901
 Alpha  occ. eigenvalues --   -0.39270  -0.38742  -0.38517  -0.37735  -0.36652
 Alpha  occ. eigenvalues --   -0.36325  -0.35439  -0.34190  -0.33163  -0.31861
 Alpha  occ. eigenvalues --   -0.31214  -0.29478
 Alpha virt. eigenvalues --   -0.13028  -0.10257  -0.09959  -0.07806  -0.07751
 Alpha virt. eigenvalues --   -0.06745  -0.06105  -0.05654  -0.04186  -0.02850
 Alpha virt. eigenvalues --   -0.02372  -0.01782  -0.00968  -0.00532  -0.00366

 Mulliken charges:
               1
     1  N   -0.791053
     2  C   -0.092269
     3  C    0.641531
     4  O   -0.498956
     5  C   -0.374573
     6  C    0.011449
     7  C    0.021861
     8  C    0.058957
     9  C    0.319920
    10  C   -0.244162
    11  N   -0.685827
    12  C   -0.153928
    13  C   -0.132372
    14  C   -0.151561
    15  H    0.210985
    16  H    0.211182
    17  H    0.172893
    18  H    0.183858
    19  H    0.345843
    20  H    0.115752
    21  H    0.147228
    22  H    0.140888
    23  H    0.148595
    24  H    0.397286
    25  H    0.384613
    26  N   -0.649420
    27  C   -0.055234
    28  C    0.615857
    29  O   -0.476584
    30  C   -0.066149
    31  C   -0.268439
    32  C   -0.471973
    33  C   -0.451726
    34  H    0.354140
    35  H    0.155398
    36  H    0.191850
    37  H    0.118263
    38  H    0.147598
    39  H    0.152091
    40  H    0.123375
    41  H    0.164101
    42  H    0.146389
    43  H    0.164961
    44  H    0.150979
    45  N   -0.610429
    46  C   -0.018846
    47  C    0.582204
    48  O   -0.577263
    49  C   -0.264863
    50  C   -0.310342
    51  C   -0.157527
    52  N   -0.600334
    53  C    0.776619
    54  N   -0.751684
    55  N   -0.781042
    56  O   -0.633997
    57  H    0.447485
    58  H    0.339916
    59  H    0.138062
    60  H    0.154314
    61  H    0.171426
    62  H    0.190929
    63  H    0.173776
    64  H    0.172299
    65  H    0.186744
    66  H    0.383947
    67  H    0.380301
    68  H    0.386743
    69  H    0.422525
    70  H    0.365417
 Sum of Mulliken charges =   1.00000

 Dipole moment (field-independent basis, Debye):
    X=           -470.1473    Y=            -78.1580    Z=             30.3549  Tot=            477.5652
 Quadrupole moment (field-independent basis, Debye-Ang):
   XX=          45795.6978   YY=           1126.6294   ZZ=             66.7372
   XY=           7640.4691   XZ=          -2977.3674   YZ=           -525.3443

 Normal termination of Gaussian 16 at Tue May 24 23:10:43 2022.
