 Gaussian 16, Revision C.01,
 Gaussian 16:  ES64L-G16RevC.01  3-Jul-2019

 ----------------------------------------------------------------------
 # B3LYP/6-31G* empiricaldispersion=gd3 guess=read geom=check nosymm in
 tegral(ultrafinegrid)
 ----------------------------------------------------------------------

 ------------------------------------------------------
 Candidate Structure: Conf:667 Charge calc in gas phase
 ------------------------------------------------------
 Structure from the checkpoint file:  "conf-667.chk"
 Charge =  1 Multiplicity = 1

                          Input orientation:
 ---------------------------------------------------------------------
 Center     Atomic      Atomic             Coordinates (Angstroms)
 Number     Number       Type             X           Y           Z
 ---------------------------------------------------------------------
      1          7           0       -7.713304   18.554386   14.192601
      2          6           0       -8.256968   19.762435   13.470999
      3          6           0       -9.339197   19.148003   12.543602
      4          8           0       -9.805910   18.052141   12.870408
      5          6           0       -7.083059   20.522436   12.813541
      6          6           0       -5.905900   20.671644   13.757304
      7          6           0       -4.831755   19.771252   13.694573
      8          6           0       -5.902016   21.671358   14.740034
      9          6           0       -3.770085   19.876748   14.595839
     10          6           0       -4.840804   21.775789   15.640278
     11          6           0       -3.772721   20.877941   15.569232
     12          1           0       -7.172453   17.977322   13.461568
     13          1           0       -8.740833   20.393562   14.225315
     14          1           0       -6.780089   19.981097   11.914050
     15          1           0       -7.440990   21.509577   12.515062
     16          1           0       -4.834533   18.988625   12.939272
     17          1           0       -6.725247   22.381517   14.791251
     18          1           0       -2.939266   19.179848   14.533060
     19          1           0       -4.844047   22.561042   16.390641
     20          1           0       -2.944550   20.962076   16.266675
     21          1           0       -8.503724   17.970341   14.491020
     22          1           0       -7.103327   18.819083   14.969074
     23          7           0       -9.692509   19.750114   11.386593
     24          6           0      -10.573662   18.993169   10.461008
     25          6           0       -9.975646   17.624000   10.099687
     26          8           0      -10.684414   16.636347    9.977544
     27          6           0      -10.736772   19.958208    9.272893
     28          6           0      -10.643837   21.342176    9.931897
     29          6           0       -9.522844   21.158416   10.964542
     30          1           0      -11.529282   18.779439   10.947269
     31          1           0       -9.915313   19.817905    8.560359
     32          1           0      -11.676134   19.787026    8.743403
     33          1           0      -10.420706   22.144718    9.224304
     34          1           0      -11.583960   21.585186   10.439301
     35          1           0       -9.614742   21.835079   11.818393
     36          1           0       -8.539781   21.306748   10.503396
     37          7           0       -8.612384   17.610772    9.901230
     38          6           0       -7.899033   16.367198   10.162663
     39          6           0       -7.303748   16.416633   11.586472
     40          8           0       -6.825044   17.519959   11.963463
     41          6           0       -6.813031   16.043545    9.127625
     42          6           0       -6.235778   14.625803    9.292964
     43          6           0       -7.256902   13.480851    9.040735
     44          6           0       -7.634725   12.627714   10.255613
     45          7           0       -8.490026   13.360100   11.254481
     46          8           0       -7.311804   15.359508   12.288516
     47          1           0       -7.953231   14.284140   11.713149
     48          1           0       -8.109526   18.429600   10.223131
     49          1           0       -8.670798   15.600756   10.114988
     50          1           0       -6.005919   16.781816    9.208477
     51          1           0       -7.253917   16.154632    8.129698
     52          1           0       -5.404977   14.516899    8.588773
     53          1           0       -5.795831   14.522612   10.292619
     54          1           0       -6.839013   12.776548    8.313071
     55          1           0       -8.171916   13.869562    8.572067
     56          1           0       -8.182780   11.734671    9.940501
     57          1           0       -6.740761   12.306687   10.798127
     58          1           0       -9.365510   13.680076   10.828455
     59          1           0       -8.745898   12.744009   12.030511
 ---------------------------------------------------------------------

 SCF Done:  E(RB3LYP) =  -1300.63262369     A.U. after    1 cycles

 Alpha  occ. eigenvalues --  -19.24043 -19.23129 -19.22339 -19.21127 -14.54371
 Alpha  occ. eigenvalues --  -14.52975 -14.48671 -14.44855 -10.41470 -10.39893
 Alpha  occ. eigenvalues --  -10.38257 -10.38061 -10.35586 -10.34088 -10.33364
 Alpha  occ. eigenvalues --  -10.32376 -10.31298 -10.30348 -10.29949 -10.29652
 Alpha  occ. eigenvalues --  -10.29490 -10.28779 -10.28778 -10.28529 -10.28454
 Alpha  occ. eigenvalues --  -10.28356 -10.28287 -10.28115  -1.16829  -1.15938
 Alpha  occ. eigenvalues --   -1.12910  -1.09749  -1.08511  -1.06619  -1.06092
 Alpha  occ. eigenvalues --   -1.01605  -0.95482  -0.91631  -0.91041  -0.89485
 Alpha  occ. eigenvalues --   -0.87263  -0.85388  -0.84052  -0.83829  -0.80036
 Alpha  occ. eigenvalues --   -0.77823  -0.75463  -0.74402  -0.71255  -0.70547
 Alpha  occ. eigenvalues --   -0.69968  -0.69355  -0.69176  -0.68533  -0.67803
 Alpha  occ. eigenvalues --   -0.67377  -0.66917  -0.66520  -0.64224  -0.61179
 Alpha  occ. eigenvalues --   -0.60766  -0.60548  -0.60081  -0.59834  -0.58000
 Alpha  occ. eigenvalues --   -0.57312  -0.57206  -0.55976  -0.55487  -0.55108
 Alpha  occ. eigenvalues --   -0.54360  -0.54005  -0.53306  -0.52845  -0.52538
 Alpha  occ. eigenvalues --   -0.52204  -0.51736  -0.51324  -0.51062  -0.50770
 Alpha  occ. eigenvalues --   -0.49977  -0.49691  -0.48995  -0.48627  -0.48202
 Alpha  occ. eigenvalues --   -0.47400  -0.46688  -0.46109  -0.45372  -0.45242
 Alpha  occ. eigenvalues --   -0.44707  -0.44540  -0.43766  -0.43698  -0.43392
 Alpha  occ. eigenvalues --   -0.42872  -0.38982  -0.38179  -0.38122  -0.37267
 Alpha  occ. eigenvalues --   -0.36701  -0.34586  -0.34509  -0.34191  -0.33890
 Alpha virt. eigenvalues --   -0.11662  -0.09948  -0.09816  -0.08154  -0.07083
 Alpha virt. eigenvalues --   -0.06404  -0.04549  -0.03348  -0.01747  -0.01701
 Alpha virt. eigenvalues --   -0.00336  -0.00168   0.00686   0.00764   0.01555

 Mulliken charges:
               1
     1  N   -0.759851
     2  C   -0.104792
     3  C    0.635260
     4  O   -0.532525
     5  C   -0.375466
     6  C    0.110280
     7  C   -0.208620
     8  C   -0.185942
     9  C   -0.128372
    10  C   -0.127225
    11  C   -0.125478
    12  H    0.448365
    13  H    0.207446
    14  H    0.196939
    15  H    0.179234
    16  H    0.167986
    17  H    0.134770
    18  H    0.156459
    19  H    0.157934
    20  H    0.159145
    21  H    0.408270
    22  H    0.397779
    23  N   -0.489353
    24  C   -0.019491
    25  C    0.613576
    26  O   -0.516258
    27  C   -0.314945
    28  C   -0.301762
    29  C   -0.140300
    30  H    0.199466
    31  H    0.169476
    32  H    0.191885
    33  H    0.179784
    34  H    0.174627
    35  H    0.173237
    36  H    0.173630
    37  N   -0.594065
    38  C   -0.067796
    39  C    0.667710
    40  O   -0.613795
    41  C   -0.276844
    42  C   -0.295672
    43  C   -0.290469
    44  C   -0.181321
    45  N   -0.786786
    46  O   -0.607082
    47  H    0.469800
    48  H    0.336309
    49  H    0.143418
    50  H    0.159827
    51  H    0.167494
    52  H    0.171193
    53  H    0.162675
    54  H    0.185181
    55  H    0.167813
    56  H    0.193351
    57  H    0.201328
    58  H    0.394488
    59  H    0.388072
 Sum of Mulliken charges =   1.00000

 Dipole moment (field-independent basis, Debye):
    X=            -37.7829    Y=             83.8568    Z=             58.2491  Tot=            108.8691
 Quadrupole moment (field-independent basis, Debye-Ang):
   XX=            145.1085   YY=           1387.4532   ZZ=            577.2280
   XY=           -665.5163   XZ=           -449.7133   YZ=           1038.7273

 Normal termination of Gaussian 16 at Wed May 25 19:10:03 2022.
