 Gaussian 16, Revision C.01,
 Gaussian 16:  ES64L-G16RevC.01  3-Jul-2019

 ----------------------------------------------------------------------
 # B3LYP/6-31G* empiricaldispersion=gd3 guess=read geom=check nosymm in
 tegral(ultrafinegrid)
 ----------------------------------------------------------------------

 ------------------------------------------------------
 Candidate Structure: Conf:750 Charge calc in gas phase
 ------------------------------------------------------
 Structure from the checkpoint file:  "conf-750.chk"
 Charge =  1 Multiplicity = 1

                          Input orientation:
 ---------------------------------------------------------------------
 Center     Atomic      Atomic             Coordinates (Angstroms)
 Number     Number       Type             X           Y           Z
 ---------------------------------------------------------------------
      1          7           0       -7.638632   15.515768   11.065212
      2          6           0       -8.855631   16.202397   10.481679
      3          6           0       -8.242961   17.259444    9.530579
      4          8           0       -7.050320   17.133640    9.243130
      5          6           0       -9.727050   16.732978   11.639691
      6          6           0       -9.949176   15.677823   12.705263
      7          6           0       -9.182588   15.686533   13.879827
      8          6           0      -10.877464   14.647109   12.500153
      9          6           0       -9.350161   14.682601   14.836682
     10          6           0      -11.042895   13.644815   13.456521
     11          6           0      -10.278510   13.661283   14.626322
     12          1           0       -7.146676   16.183459   11.715262
     13          1           0       -9.400908   15.441125    9.913265
     14          1           0       -9.235499   17.609735   12.072319
     15          1           0      -10.683996   17.053513   11.222015
     16          1           0       -8.460768   16.483098   14.044144
     17          1           0      -11.485695   14.637481   11.597496
     18          1           0       -8.759277   14.703003   15.747697
     19          1           0      -11.772490   12.857237   13.293043
     20          1           0      -10.410826   12.883649   15.372509
     21          1           0       -6.971001   15.317529   10.309074
     22          1           0       -7.902823   14.674157   11.585678
     23          7           0       -8.955760   18.338605    9.135312
     24          6           0       -8.198354   19.460217    8.514951
     25          6           0       -7.102505   19.912706    9.496837
     26          8           0       -5.929727   20.046925    9.169628
     27          6           0       -9.300802   20.488452    8.199024
     28          6           0      -10.544114   19.613863    7.964818
     29          6           0      -10.418661   18.537092    9.051850
     30          1           0       -7.678779   19.115399    7.617884
     31          1           0       -9.458449   21.154823    9.055362
     32          1           0       -9.036563   21.107318    7.339309
     33          1           0      -11.481467   20.169948    8.043311
     34          1           0      -10.502430   19.150274    6.973389
     35          1           0      -10.924131   17.601248    8.797975
     36          1           0      -10.818475   18.902918   10.005818
     37          7           0       -7.526632   20.085654   10.790426
     38          6           0       -6.566917   20.014418   11.899464
     39          6           0       -6.111370   18.544487   11.918000
     40          8           0       -6.728649   17.680038   12.537659
     41          6           0       -7.209190   20.455065   13.214090
     42          6           0       -6.274108   20.342788   14.428445
     43          6           0       -4.971224   21.144639   14.310934
     44          6           0       -4.128244   21.116769   15.603011
     45          7           0       -3.642109   19.810678   16.043460
     46          8           0       -5.090409   18.210983   11.143755
     47          1           0       -4.904054   18.928668   10.495096
     48          1           0       -8.471956   19.799959   11.014096
     49          1           0       -5.724420   20.659572   11.643743
     50          1           0       -8.104838   19.844438   13.390988
     51          1           0       -7.539506   21.492348   13.082964
     52          1           0       -6.829380   20.688527   15.310026
     53          1           0       -6.045278   19.284482   14.606075
     54          1           0       -5.203628   22.188740   14.054939
     55          1           0       -4.354121   20.750750   13.488607
     56          1           0       -3.257555   21.769791   15.470766
     57          1           0       -4.715241   21.548462   16.424364
     58          1           0       -4.413094   19.182992   16.259537
     59          1           0       -3.088682   19.366033   15.312961
 ---------------------------------------------------------------------

 SCF Done:  E(RB3LYP) =  -1300.60332222     A.U. after    1 cycles

 Alpha  occ. eigenvalues --  -19.31796 -19.27864 -19.26720 -19.24934 -14.58249
 Alpha  occ. eigenvalues --  -14.51159 -14.49386 -14.38207 -10.45512 -10.44053
 Alpha  occ. eigenvalues --  -10.41946 -10.40940 -10.36484 -10.36244 -10.36182
 Alpha  occ. eigenvalues --  -10.34099 -10.31977 -10.31842 -10.31757 -10.30635
 Alpha  occ. eigenvalues --  -10.30374 -10.30281 -10.30063 -10.29998 -10.29784
 Alpha  occ. eigenvalues --  -10.28106 -10.27894 -10.26701  -1.23468  -1.19547
 Alpha  occ. eigenvalues --   -1.16731  -1.14998  -1.12923  -1.08789  -1.05629
 Alpha  occ. eigenvalues --   -0.97548  -0.95137  -0.94168  -0.91890  -0.91608
 Alpha  occ. eigenvalues --   -0.88547  -0.86378  -0.85663  -0.84456  -0.80236
 Alpha  occ. eigenvalues --   -0.79025  -0.78069  -0.74975  -0.73784  -0.73137
 Alpha  occ. eigenvalues --   -0.72305  -0.72118  -0.71548  -0.70983  -0.69896
 Alpha  occ. eigenvalues --   -0.69207  -0.67677  -0.66432  -0.63936  -0.63174
 Alpha  occ. eigenvalues --   -0.62961  -0.62553  -0.61602  -0.60374  -0.59324
 Alpha  occ. eigenvalues --   -0.58170  -0.57594  -0.57190  -0.56703  -0.56512
 Alpha  occ. eigenvalues --   -0.56023  -0.55537  -0.55062  -0.54549  -0.53893
 Alpha  occ. eigenvalues --   -0.53402  -0.53130  -0.52705  -0.52298  -0.51879
 Alpha  occ. eigenvalues --   -0.51377  -0.50999  -0.50329  -0.49683  -0.49392
 Alpha  occ. eigenvalues --   -0.48507  -0.47988  -0.47262  -0.47237  -0.46815
 Alpha  occ. eigenvalues --   -0.45614  -0.45246  -0.45051  -0.44520  -0.44181
 Alpha  occ. eigenvalues --   -0.42503  -0.42016  -0.40985  -0.40751  -0.40058
 Alpha  occ. eigenvalues --   -0.37959  -0.37691  -0.36372  -0.36064  -0.30097
 Alpha virt. eigenvalues --   -0.14451  -0.13722  -0.11939  -0.11629  -0.11207
 Alpha virt. eigenvalues --   -0.07354  -0.06978  -0.04748  -0.02963  -0.02763
 Alpha virt. eigenvalues --   -0.01956  -0.01271  -0.00659   0.00054   0.00199

 Mulliken charges:
               1
     1  N   -0.755567
     2  C   -0.114891
     3  C    0.624093
     4  O   -0.515691
     5  C   -0.384842
     6  C    0.115686
     7  C   -0.216619
     8  C   -0.187301
     9  C   -0.126738
    10  C   -0.125988
    11  C   -0.123875
    12  H    0.447929
    13  H    0.218697
    14  H    0.182047
    15  H    0.189238
    16  H    0.169152
    17  H    0.137349
    18  H    0.163645
    19  H    0.164701
    20  H    0.167015
    21  H    0.420660
    22  H    0.408798
    23  N   -0.485605
    24  C   -0.022810
    25  C    0.616703
    26  O   -0.515927
    27  C   -0.321087
    28  C   -0.299707
    29  C   -0.149767
    30  H    0.213563
    31  H    0.170169
    32  H    0.202062
    33  H    0.187558
    34  H    0.183293
    35  H    0.180632
    36  H    0.170534
    37  N   -0.593732
    38  C   -0.061036
    39  C    0.643240
    40  O   -0.526130
    41  C   -0.286612
    42  C   -0.279778
    43  C   -0.271815
    44  C   -0.147662
    45  N   -0.699152
    46  O   -0.548727
    47  H    0.462621
    48  H    0.337643
    49  H    0.202590
    50  H    0.142879
    51  H    0.171980
    52  H    0.157471
    53  H    0.141805
    54  H    0.142236
    55  H    0.120677
    56  H    0.159538
    57  H    0.152350
    58  H    0.297254
    59  H    0.295250
 Sum of Mulliken charges =   1.00000

 Dipole moment (field-independent basis, Debye):
    X=            -44.2727    Y=             82.5905    Z=             52.4372  Tot=            107.3822
 Quadrupole moment (field-independent basis, Debye-Ang):
   XX=            249.0213   YY=           1297.8447   ZZ=            422.3569
   XY=           -760.0219   XZ=           -477.8883   YZ=            890.7604

 Normal termination of Gaussian 16 at Wed May 25 19:10:03 2022.
