 Gaussian 16, Revision C.01,
 Gaussian 16:  ES64L-G16RevC.01  3-Jul-2019

 ----------------------------------------------------------------------
 # B3LYP/6-31G* empiricaldispersion=gd3 guess=read geom=check nosymm in
 tegral(ultrafinegrid)
 ----------------------------------------------------------------------

 ------------------------------------------------------
 Candidate Structure: Conf:746 Charge calc in gas phase
 ------------------------------------------------------
 Structure from the checkpoint file:  "conf-746.chk"
 Charge =  1 Multiplicity = 1

                          Input orientation:
 ---------------------------------------------------------------------
 Center     Atomic      Atomic             Coordinates (Angstroms)
 Number     Number       Type             X           Y           Z
 ---------------------------------------------------------------------
      1          7           0       -6.033207   17.896641    9.590528
      2          6           0       -6.999527   19.050837    9.430006
      3          6           0       -6.714847   19.911690   10.685832
      4          8           0       -5.689876   19.657047   11.325524
      5          6           0       -8.426330   18.480302    9.277828
      6          6           0       -8.469075   17.331804    8.289454
      7          6           0       -8.482599   16.006042    8.747580
      8          6           0       -8.427989   17.577198    6.909401
      9          6           0       -8.465325   14.944676    7.839473
     10          6           0       -8.409370   16.516489    6.002931
     11          6           0       -8.427542   15.198454    6.467074
     12          1           0       -6.349752   17.322401   10.399664
     13          1           0       -6.699983   19.580472    8.519112
     14          1           0       -8.773469   18.147541   10.260123
     15          1           0       -9.080116   19.288767    8.944745
     16          1           0       -8.518958   15.808516    9.817000
     17          1           0       -8.429187   18.601535    6.541624
     18          1           0       -8.489453   13.921902    8.204090
     19          1           0       -8.389661   16.718218    4.936074
     20          1           0       -8.418960   14.373648    5.760988
     21          1           0       -5.114403   18.274149    9.857187
     22          1           0       -5.999098   17.316886    8.746764
     23          7           0       -7.614823   20.824988   11.098389
     24          6           0       -7.406246   21.437379   12.435131
     25          6           0       -7.340618   20.370658   13.542016
     26          8           0       -6.620817   20.505330   14.512076
     27          6           0       -8.589962   22.415839   12.555482
     28          6           0       -8.867456   22.816193   11.097865
     29          6           0       -8.696032   21.492288   10.339603
     30          1           0       -6.443169   21.953407   12.461977
     31          1           0       -9.459813   21.903208   12.982908
     32          1           0       -8.346002   23.260728   13.202023
     33          1           0       -9.860789   23.246954   10.949565
     34          1           0       -8.123691   23.542932   10.753405
     35          1           0       -8.412512   21.625492    9.291569
     36          1           0       -9.618704   20.901207   10.381987
     37          7           0       -8.188805   19.297703   13.360454
     38          6           0       -7.974986   18.046656   14.062080
     39          6           0       -7.133875   17.117547   13.189713
     40          8           0       -7.239575   17.043409   11.967942
     41          6           0       -9.321239   17.369200   14.408614
     42          6           0       -9.211280   16.040677   15.170739
     43          6           0       -8.532421   16.151520   16.541393
     44          6           0       -8.473002   14.810074   17.298975
     45          7           0       -7.688504   13.742506   16.675979
     46          8           0       -6.302064   16.352726   13.892687
     47          1           0       -5.833660   15.746809   13.285998
     48          1           0       -8.653417   19.222633   12.465669
     49          1           0       -7.412717   18.276436   14.968039
     50          1           0       -9.877679   17.217818   13.472676
     51          1           0       -9.885149   18.098177   15.001605
     52          1           0      -10.227593   15.647138   15.303432
     53          1           0       -8.679634   15.301606   14.556161
     54          1           0       -9.070672   16.889449   17.153447
     55          1           0       -7.506397   16.527549   16.426159
     56          1           0       -8.058184   14.987795   18.298210
     57          1           0       -9.491256   14.428941   17.451186
     58          1           0       -8.097890   13.461069   15.787783
     59          1           0       -6.743758   14.069024   16.477602
 ---------------------------------------------------------------------

 SCF Done:  E(RB3LYP) =  -1300.60084870     A.U. after    3 cycles

 Alpha  occ. eigenvalues --  -19.33621 -19.28761 -19.26180 -19.22028 -14.59181
 Alpha  occ. eigenvalues --  -14.50523 -14.46831 -14.37963 -10.46129 -10.43572
 Alpha  occ. eigenvalues --  -10.41021 -10.39457 -10.35847 -10.35016 -10.34707
 Alpha  occ. eigenvalues --  -10.34156 -10.32417 -10.31052 -10.31003 -10.30969
 Alpha  occ. eigenvalues --  -10.30677 -10.30546 -10.30517 -10.30255 -10.29693
 Alpha  occ. eigenvalues --  -10.27663 -10.27377 -10.25819  -1.24776  -1.19074
 Alpha  occ. eigenvalues --   -1.15687  -1.14292  -1.13501  -1.08086  -1.03646
 Alpha  occ. eigenvalues --   -0.97962  -0.94780  -0.93983  -0.91556  -0.90825
 Alpha  occ. eigenvalues --   -0.87739  -0.86490  -0.86144  -0.84313  -0.80265
 Alpha  occ. eigenvalues --   -0.79231  -0.77756  -0.75166  -0.74510  -0.72861
 Alpha  occ. eigenvalues --   -0.72019  -0.71714  -0.71002  -0.70193  -0.69977
 Alpha  occ. eigenvalues --   -0.68467  -0.66069  -0.65325  -0.63819  -0.63549
 Alpha  occ. eigenvalues --   -0.62709  -0.62628  -0.61640  -0.59582  -0.59301
 Alpha  occ. eigenvalues --   -0.57873  -0.57453  -0.57285  -0.56518  -0.56220
 Alpha  occ. eigenvalues --   -0.55599  -0.54695  -0.54223  -0.54038  -0.53994
 Alpha  occ. eigenvalues --   -0.53451  -0.52935  -0.52716  -0.52082  -0.51335
 Alpha  occ. eigenvalues --   -0.50654  -0.50237  -0.49725  -0.49137  -0.48805
 Alpha  occ. eigenvalues --   -0.47827  -0.47472  -0.47175  -0.46274  -0.46204
 Alpha  occ. eigenvalues --   -0.45849  -0.45624  -0.45505  -0.44268  -0.43511
 Alpha  occ. eigenvalues --   -0.42150  -0.41470  -0.40458  -0.40345  -0.38771
 Alpha  occ. eigenvalues --   -0.36889  -0.36654  -0.36480  -0.35183  -0.29847
 Alpha virt. eigenvalues --   -0.14006  -0.13206  -0.12149  -0.12076  -0.08656
 Alpha virt. eigenvalues --   -0.07884  -0.06062  -0.05538  -0.04423  -0.03391
 Alpha virt. eigenvalues --   -0.02465  -0.01627  -0.00315   0.00358   0.00452

 Mulliken charges:
               1
     1  N   -0.749392
     2  C   -0.117687
     3  C    0.633347
     4  O   -0.527783
     5  C   -0.383386
     6  C    0.115412
     7  C   -0.213942
     8  C   -0.188199
     9  C   -0.125632
    10  C   -0.125453
    11  C   -0.124384
    12  H    0.441552
    13  H    0.218319
    14  H    0.189715
    15  H    0.193126
    16  H    0.153636
    17  H    0.141045
    18  H    0.162842
    19  H    0.166896
    20  H    0.168462
    21  H    0.418715
    22  H    0.409533
    23  N   -0.487487
    24  C   -0.024592
    25  C    0.615574
    26  O   -0.480603
    27  C   -0.315709
    28  C   -0.300162
    29  C   -0.147365
    30  H    0.208394
    31  H    0.170597
    32  H    0.200326
    33  H    0.184423
    34  H    0.179168
    35  H    0.173949
    36  H    0.172964
    37  N   -0.604669
    38  C   -0.055235
    39  C    0.625875
    40  O   -0.534806
    41  C   -0.279772
    42  C   -0.269902
    43  C   -0.272465
    44  C   -0.149226
    45  N   -0.698483
    46  O   -0.517493
    47  H    0.422457
    48  H    0.331508
    49  H    0.227898
    50  H    0.136644
    51  H    0.180066
    52  H    0.157682
    53  H    0.117829
    54  H    0.142740
    55  H    0.138750
    56  H    0.159655
    57  H    0.150104
    58  H    0.293015
    59  H    0.291608
 Sum of Mulliken charges =   1.00000

 Dipole moment (field-independent basis, Debye):
    X=            -37.0865    Y=             88.1018    Z=             45.8765  Tot=            106.0283
 Quadrupole moment (field-independent basis, Debye-Ang):
   XX=            133.4345   YY=           1482.9632   ZZ=            287.0711
   XY=           -694.4207   XZ=           -368.6221   YZ=            846.3956

 Normal termination of Gaussian 16 at Wed May 25 19:10:27 2022.
