 Gaussian 16, Revision C.01,
 Gaussian 16:  ES64L-G16RevC.01  3-Jul-2019

 ----------------------------------------------------------------------
 # B3LYP/6-31G* empiricaldispersion=gd3 guess=read geom=check nosymm in
 tegral(ultrafinegrid)
 ----------------------------------------------------------------------

 ------------------------------------------------------
 Candidate Structure: Conf:841 Charge calc in gas phase
 ------------------------------------------------------
 Structure from the checkpoint file:  "conf-841.chk"
 Charge =  1 Multiplicity = 1

                          Input orientation:
 ---------------------------------------------------------------------
 Center     Atomic      Atomic             Coordinates (Angstroms)
 Number     Number       Type             X           Y           Z
 ---------------------------------------------------------------------
      1          7           0       -7.989244   16.878254    9.246327
      2          6           0       -6.596911   16.847192    9.839630
      3          6           0       -6.811372   16.092427   11.175245
      4          8           0       -7.884481   15.500119   11.324136
      5          6           0       -6.067655   18.295059    9.929159
      6          6           0       -6.314403   19.063849    8.646288
      7          6           0       -7.395504   19.952771    8.552576
      8          6           0       -5.508166   18.847696    7.519467
      9          6           0       -7.658604   20.621067    7.354412
     10          6           0       -5.772411   19.514628    6.322574
     11          6           0       -6.848638   20.402115    6.238461
     12          1           0       -8.574652   17.508969    9.832993
     13          1           0       -5.981222   16.256331    9.152794
     14          1           0       -6.559978   18.792932   10.769268
     15          1           0       -4.997857   18.251196   10.142619
     16          1           0       -8.022468   20.128481    9.424367
     17          1           0       -4.659326   18.169532    7.583421
     18          1           0       -8.490082   21.317372    7.296093
     19          1           0       -5.134224   19.348792    5.459740
     20          1           0       -7.050084   20.925206    5.308550
     21          1           0       -8.405534   15.942420    9.339453
     22          1           0       -7.976657   17.217193    8.279785
     23          7           0       -5.892738   16.179644   12.156494
     24          6           0       -6.264401   15.649010   13.492842
     25          6           0       -7.536010   16.324374   14.035612
     26          8           0       -8.340144   15.714153   14.712509
     27          6           0       -4.995873   15.901270   14.329734
     28          6           0       -3.865041   15.816978   13.292380
     29          6           0       -4.459935   16.541118   12.076341
     30          1           0       -6.501644   14.584761   13.417991
     31          1           0       -5.031859   16.902612   14.774858
     32          1           0       -4.900798   15.176083   15.139946
     33          1           0       -2.934155   16.279850   13.629210
     34          1           0       -3.656292   14.771801   13.039359
     35          1           0       -4.028621   16.218049   11.124441
     36          1           0       -4.329644   17.625813   12.171310
     37          7           0       -7.651986   17.665182   13.731255
     38          6           0       -8.932696   18.341832   13.803429
     39          6           0       -9.607071   18.290828   12.434199
     40          8           0       -9.002949   18.393719   11.369429
     41          6           0       -8.756437   19.811978   14.248998
     42          6           0      -10.055207   20.622547   14.366881
     43          6           0      -11.048460   20.080831   15.402199
     44          6           0      -12.327569   20.933596   15.518721
     45          7           0      -13.171286   21.011011   14.324772
     46          8           0      -10.930542   18.172979   12.508007
     47          1           0      -11.305443   18.198856   11.606122
     48          1           0       -6.994473   18.045561   13.064068
     49          1           0       -9.549440   17.791953   14.515409
     50          1           0       -8.073583   20.302878   13.540971
     51          1           0       -8.243584   19.778162   15.216916
     52          1           0       -9.783209   21.652184   14.633704
     53          1           0      -10.545122   20.684927   13.385648
     54          1           0      -10.556273   20.029641   16.383999
     55          1           0      -11.341785   19.053833   15.144040
     56          1           0      -12.942402   20.536953   16.335282
     57          1           0      -12.060365   21.959440   15.804167
     58          1           0      -12.682235   21.476323   13.563184
     59          1           0      -13.407099   20.074799   13.998549
 ---------------------------------------------------------------------

 SCF Done:  E(RB3LYP) =  -1300.60083757     A.U. after    1 cycles

 Alpha  occ. eigenvalues --  -19.33618 -19.28756 -19.26179 -19.22038 -14.59181
 Alpha  occ. eigenvalues --  -14.50522 -14.46841 -14.37986 -10.46123 -10.43572
 Alpha  occ. eigenvalues --  -10.41020 -10.39463 -10.35849 -10.35022 -10.34712
 Alpha  occ. eigenvalues --  -10.34155 -10.32416 -10.31052 -10.30999 -10.30972
 Alpha  occ. eigenvalues --  -10.30681 -10.30544 -10.30516 -10.30254 -10.29708
 Alpha  occ. eigenvalues --  -10.27683 -10.27394 -10.25835  -1.24773  -1.19071
 Alpha  occ. eigenvalues --   -1.15685  -1.14298  -1.13503  -1.08087  -1.03654
 Alpha  occ. eigenvalues --   -0.97960  -0.94802  -0.93983  -0.91556  -0.90834
 Alpha  occ. eigenvalues --   -0.87742  -0.86490  -0.86143  -0.84318  -0.80262
 Alpha  occ. eigenvalues --   -0.79246  -0.77757  -0.75172  -0.74510  -0.72861
 Alpha  occ. eigenvalues --   -0.72019  -0.71715  -0.71007  -0.70195  -0.69984
 Alpha  occ. eigenvalues --   -0.68458  -0.66087  -0.65329  -0.63819  -0.63548
 Alpha  occ. eigenvalues --   -0.62710  -0.62627  -0.61639  -0.59588  -0.59315
 Alpha  occ. eigenvalues --   -0.57874  -0.57451  -0.57283  -0.56525  -0.56228
 Alpha  occ. eigenvalues --   -0.55602  -0.54703  -0.54222  -0.54035  -0.54000
 Alpha  occ. eigenvalues --   -0.53447  -0.52937  -0.52718  -0.52086  -0.51334
 Alpha  occ. eigenvalues --   -0.50657  -0.50257  -0.49735  -0.49142  -0.48815
 Alpha  occ. eigenvalues --   -0.47827  -0.47473  -0.47190  -0.46278  -0.46208
 Alpha  occ. eigenvalues --   -0.45850  -0.45625  -0.45503  -0.44288  -0.43519
 Alpha  occ. eigenvalues --   -0.42148  -0.41489  -0.40455  -0.40363  -0.38773
 Alpha  occ. eigenvalues --   -0.36887  -0.36663  -0.36481  -0.35187  -0.29869
 Alpha virt. eigenvalues --   -0.14003  -0.13205  -0.12147  -0.12076  -0.08668
 Alpha virt. eigenvalues --   -0.07890  -0.06073  -0.05540  -0.04435  -0.03392
 Alpha virt. eigenvalues --   -0.02473  -0.01638  -0.00317   0.00354   0.00442

 Mulliken charges:
               1
     1  N   -0.749317
     2  C   -0.117644
     3  C    0.633288
     4  O   -0.527724
     5  C   -0.383259
     6  C    0.115186
     7  C   -0.213822
     8  C   -0.188264
     9  C   -0.125652
    10  C   -0.125459
    11  C   -0.124382
    12  H    0.441623
    13  H    0.218246
    14  H    0.189555
    15  H    0.193074
    16  H    0.153761
    17  H    0.141048
    18  H    0.162833
    19  H    0.166889
    20  H    0.168458
    21  H    0.418667
    22  H    0.409527
    23  N   -0.487412
    24  C   -0.024645
    25  C    0.615557
    26  O   -0.480457
    27  C   -0.315789
    28  C   -0.300111
    29  C   -0.147392
    30  H    0.208417
    31  H    0.170614
    32  H    0.200323
    33  H    0.184422
    34  H    0.179189
    35  H    0.173966
    36  H    0.172882
    37  N   -0.604810
    38  C   -0.054788
    39  C    0.626021
    40  O   -0.534703
    41  C   -0.279832
    42  C   -0.270190
    43  C   -0.272491
    44  C   -0.149172
    45  N   -0.698468
    46  O   -0.517518
    47  H    0.422438
    48  H    0.331521
    49  H    0.227722
    50  H    0.136536
    51  H    0.180100
    52  H    0.157796
    53  H    0.117530
    54  H    0.142871
    55  H    0.138832
    56  H    0.159763
    57  H    0.150130
    58  H    0.292948
    59  H    0.291565
 Sum of Mulliken charges =   1.00000

 Dipole moment (field-independent basis, Debye):
    X=            -32.1652    Y=             85.7769    Z=             47.5612  Tot=            103.2198
 Quadrupole moment (field-independent basis, Debye-Ang):
   XX=             70.8026   YY=           1373.8395   ZZ=            336.5884
   XY=           -584.8077   XZ=           -301.4547   YZ=            852.5306

 Normal termination of Gaussian 16 at Wed May 25 19:10:03 2022.
