 Gaussian 16, Revision C.01,
 Gaussian 16:  ES64L-G16RevC.01  3-Jul-2019

 ----------------------------------------------------------------------
 # B3LYP/6-31G* empiricaldispersion=gd3 guess=read geom=check nosymm in
 tegral(ultrafinegrid)
 ----------------------------------------------------------------------

 ------------------------------------------------------
 Candidate Structure: Conf:879 Charge calc in gas phase
 ------------------------------------------------------
 Structure from the checkpoint file:  "conf-879.chk"
 Charge =  1 Multiplicity = 1

                          Input orientation:
 ---------------------------------------------------------------------
 Center     Atomic      Atomic             Coordinates (Angstroms)
 Number     Number       Type             X           Y           Z
 ---------------------------------------------------------------------
      1          7           0       -7.180472   16.290948    9.868043
      2          6           0       -7.269881   17.672799    9.250733
      3          6           0       -6.418409   18.514233   10.248122
      4          8           0       -5.538301   17.884959   10.850169
      5          6           0       -8.753065   17.997608    8.986285
      6          6           0       -9.467065   16.833713    8.324552
      7          6           0      -10.246508   15.952245    9.088119
      8          6           0       -9.306380   16.590838    6.953144
      9          6           0      -10.860837   14.851600    8.486294
     10          6           0       -9.919531   15.490195    6.353118
     11          6           0      -10.697840   14.618734    7.119281
     12          1           0       -7.789306   16.264855   10.711928
     13          1           0       -6.726372   17.610751    8.301645
     14          1           0       -9.241316   18.250413    9.932638
     15          1           0       -8.796447   18.872883    8.334447
     16          1           0      -10.373327   16.133762   10.153266
     17          1           0       -8.714036   17.274706    6.348267
     18          1           0      -11.472543   14.181545    9.083450
     19          1           0       -9.797164   15.318348    5.287862
     20          1           0      -11.179770   13.765879    6.650917
     21          1           0       -6.206481   16.187670   10.200979
     22          1           0       -7.469927   15.560320    9.212636
     23          7           0       -6.665165   19.811117   10.518773
     24          6           0       -5.944704   20.394898   11.680828
     25          6           0       -6.425560   19.778845   13.014582
     26          8           0       -5.742138   19.905483   14.021267
     27          6           0       -6.223325   21.903021   11.565860
     28          6           0       -7.577601   21.966076   10.846676
     29          6           0       -7.495264   20.824060    9.823461
     30          1           0       -4.881413   20.158657   11.624714
     31          1           0       -6.223385   22.384455   12.546129
     32          1           0       -5.443363   22.374306   10.958458
     33          1           0       -8.391668   21.769342   11.553725
     34          1           0       -7.771227   22.928271   10.366821
     35          1           0       -6.991119   21.141743    8.902843
     36          1           0       -8.479996   20.438323    9.567969
     37          7           0       -7.625393   19.139289   12.972559
     38          6           0       -8.083175   18.243774   14.020787
     39          6           0       -8.724582   17.051786   13.362109
     40          8           0       -8.739837   16.826209   12.148207
     41          6           0       -8.986207   18.935780   15.078932
     42          6           0       -8.834507   18.402331   16.515042
     43          6           0       -7.515540   18.788394   17.231522
     44          6           0       -6.418298   17.716580   17.260226
     45          7           0       -5.855224   17.462848   15.924498
     46          8           0       -9.292068   16.221801   14.235170
     47          1           0       -9.675542   15.470341   13.744127
     48          1           0       -8.087086   19.064173   12.079551
     49          1           0       -7.196176   17.837244   14.561905
     50          1           0      -10.036902   18.878688   14.767709
     51          1           0       -8.711939   19.995825   15.062008
     52          1           0       -9.675007   18.809595   17.089338
     53          1           0       -8.964184   17.313726   16.522973
     54          1           0       -7.745123   19.033985   18.275431
     55          1           0       -7.103282   19.706470   16.789445
     56          1           0       -5.650439   18.026231   17.987867
     57          1           0       -6.842607   16.774600   17.630891
     58          1           0       -5.370587   18.296281   15.589665
     59          1           0       -5.166131   16.713749   15.968579
 ---------------------------------------------------------------------

 SCF Done:  E(RB3LYP) =  -1300.60567900     A.U. after    3 cycles

 Alpha  occ. eigenvalues --  -19.32472 -19.27876 -19.25768 -19.21439 -14.58018
 Alpha  occ. eigenvalues --  -14.50327 -14.46234 -14.39107 -10.45360 -10.43341
 Alpha  occ. eigenvalues --  -10.40542 -10.38911 -10.35121 -10.34150 -10.33815
 Alpha  occ. eigenvalues --  -10.32834 -10.31989 -10.30610 -10.30553 -10.30445
 Alpha  occ. eigenvalues --  -10.30164 -10.30099 -10.29920 -10.29861 -10.27820
 Alpha  occ. eigenvalues --  -10.27787 -10.25862 -10.25183  -1.23843  -1.18660
 Alpha  occ. eigenvalues --   -1.14630  -1.13528  -1.12579  -1.07482  -1.02854
 Alpha  occ. eigenvalues --   -0.97513  -0.95473  -0.93266  -0.91165  -0.89368
 Alpha  occ. eigenvalues --   -0.86938  -0.85936  -0.85700  -0.83903  -0.79920
 Alpha  occ. eigenvalues --   -0.78266  -0.77275  -0.74424  -0.73661  -0.72197
 Alpha  occ. eigenvalues --   -0.71419  -0.70895  -0.70417  -0.69735  -0.68943
 Alpha  occ. eigenvalues --   -0.68486  -0.65001  -0.64174  -0.64014  -0.62820
 Alpha  occ. eigenvalues --   -0.62094  -0.61512  -0.60311  -0.59090  -0.58305
 Alpha  occ. eigenvalues --   -0.57528  -0.56838  -0.56634  -0.56331  -0.56017
 Alpha  occ. eigenvalues --   -0.54899  -0.54269  -0.53685  -0.53383  -0.53184
 Alpha  occ. eigenvalues --   -0.52641  -0.52215  -0.52167  -0.51578  -0.51098
 Alpha  occ. eigenvalues --   -0.50756  -0.49927  -0.48962  -0.48800  -0.47959
 Alpha  occ. eigenvalues --   -0.47468  -0.47093  -0.46829  -0.45740  -0.45409
 Alpha  occ. eigenvalues --   -0.45023  -0.44906  -0.44396  -0.43257  -0.41729
 Alpha  occ. eigenvalues --   -0.40835  -0.40353  -0.40150  -0.39889  -0.38893
 Alpha  occ. eigenvalues --   -0.36462  -0.36082  -0.35647  -0.34555  -0.31305
 Alpha virt. eigenvalues --   -0.13537  -0.12291  -0.11910  -0.11676  -0.07858
 Alpha virt. eigenvalues --   -0.06740  -0.05171  -0.04254  -0.03264  -0.02473
 Alpha virt. eigenvalues --   -0.01210  -0.00570   0.00698   0.01113   0.01328

 Mulliken charges:
               1
     1  N   -0.762948
     2  C   -0.105276
     3  C    0.622040
     4  O   -0.526790
     5  C   -0.391398
     6  C    0.114680
     7  C   -0.211696
     8  C   -0.186738
     9  C   -0.126720
    10  C   -0.125841
    11  C   -0.124059
    12  H    0.448603
    13  H    0.223064
    14  H    0.188705
    15  H    0.195270
    16  H    0.151446
    17  H    0.142698
    18  H    0.159535
    19  H    0.165925
    20  H    0.166786
    21  H    0.422049
    22  H    0.408010
    23  N   -0.492132
    24  C   -0.039834
    25  C    0.620847
    26  O   -0.514180
    27  C   -0.307358
    28  C   -0.307746
    29  C   -0.148272
    30  H    0.214282
    31  H    0.199212
    32  H    0.176487
    33  H    0.169467
    34  H    0.185507
    35  H    0.183963
    36  H    0.176718
    37  N   -0.613151
    38  C   -0.073148
    39  C    0.597233
    40  O   -0.551608
    41  C   -0.274272
    42  C   -0.270522
    43  C   -0.275551
    44  C   -0.135610
    45  N   -0.755793
    46  O   -0.520457
    47  H    0.425986
    48  H    0.332942
    49  H    0.291079
    50  H    0.141204
    51  H    0.169368
    52  H    0.149903
    53  H    0.156780
    54  H    0.151952
    55  H    0.152202
    56  H    0.138225
    57  H    0.145192
    58  H    0.344504
    59  H    0.309236
 Sum of Mulliken charges =   1.00000

 Dipole moment (field-independent basis, Debye):
    X=            -39.3400    Y=             83.5758    Z=             49.5409  Tot=            104.8182
 Quadrupole moment (field-independent basis, Debye-Ang):
   XX=            166.0040   YY=           1330.4953   ZZ=            391.5433
   XY=           -677.2120   XZ=           -407.6827   YZ=            862.6420

 Normal termination of Gaussian 16 at Wed May 25 19:10:26 2022.
