 Gaussian 16, Revision C.01,
 Gaussian 16:  ES64L-G16RevC.01  3-Jul-2019

 ----------------------------------------------------------------------
 # B3LYP/6-31G* empiricaldispersion=gd3 guess=read geom=check nosymm in
 tegral(ultrafinegrid)
 ----------------------------------------------------------------------

 ------------------------------------------------------
 Candidate Structure: Conf:472 Charge calc in gas phase
 ------------------------------------------------------
 Structure from the checkpoint file:  "conf-472.chk"
 Charge =  1 Multiplicity = 1

                          Input orientation:
 ---------------------------------------------------------------------
 Center     Atomic      Atomic             Coordinates (Angstroms)
 Number     Number       Type             X           Y           Z
 ---------------------------------------------------------------------
      1          7           0       -9.987099   18.679134   10.419188
      2          6           0       -9.544381   19.871307   11.235818
      3          6           0       -8.031889   19.969534   10.903888
      4          8           0       -7.643515   19.409459    9.873538
      5          6           0       -9.950983   19.647898   12.709648
      6          6           0      -11.367862   19.121835   12.829378
      7          6           0      -11.600045   17.748960   13.000161
      8          6           0      -12.462432   19.989544   12.707475
      9          6           0      -12.905715   17.256138   13.056659
     10          6           0      -13.766619   19.496155   12.763362
     11          6           0      -13.989923   18.127944   12.937981
     12          1           0       -9.561854   17.818213   10.862107
     13          1           0      -10.068881   20.741786   10.825823
     14          1           0       -9.246067   18.946789   13.163268
     15          1           0       -9.865735   20.602149   13.233008
     16          1           0      -10.754966   17.070144   13.090632
     17          1           0      -12.294255   21.057959   12.585553
     18          1           0      -13.074349   16.192668   13.199076
     19          1           0      -14.606720   20.179250   12.678920
     20          1           0      -15.004820   17.744769   12.986496
     21          1           0       -9.565735   18.755081    9.484054
     22          1           0      -11.006338   18.596289   10.391616
     23          7           0       -7.173801   20.572068   11.753138
     24          6           0       -5.721486   20.451304   11.463860
     25          6           0       -5.281032   18.983056   11.346289
     26          8           0       -4.436995   18.638625   10.537218
     27          6           0       -5.072946   21.226084   12.625245
     28          6           0       -6.117218   22.303437   12.953584
     29          6           0       -7.446188   21.543759   12.836286
     30          1           0       -5.496816   20.904880   10.494817
     31          1           0       -4.926115   20.560995   13.484508
     32          1           0       -4.099619   21.631282   12.341940
     33          1           0       -5.985627   22.746332   13.943996
     34          1           0       -6.079531   23.108227   12.211226
     35          1           0       -8.287832   22.191592   12.576243
     36          1           0       -7.680283   21.021658   13.771077
     37          7           0       -5.879708   18.117735   12.238020
     38          6           0       -5.993943   16.711502   11.880910
     39          6           0       -7.404018   16.462858   11.321567
     40          8           0       -8.370297   17.065292   11.814971
     41          6           0       -5.711184   15.766011   13.062399
     42          6           0       -5.615963   14.283153   12.663516
     43          6           0       -4.406672   13.935749   11.752815
     44          6           0       -4.759231   13.451620   10.342778
     45          7           0       -5.334968   14.533619    9.497299
     46          8           0       -7.556067   15.605844   10.356623
     47          1           0       -6.637918   15.184305   10.028221
     48          1           0       -6.681156   18.477559   12.741583
     49          1           0       -5.255217   16.549097   11.096686
     50          1           0       -6.495489   15.900429   13.818230
     51          1           0       -4.768591   16.092017   13.517164
     52          1           0       -5.549481   13.698190   13.586565
     53          1           0       -6.551295   13.967312   12.183644
     54          1           0       -3.818035   13.138384   12.219422
     55          1           0       -3.722871   14.793512   11.676512
     56          1           0       -3.866230   13.029558    9.864239
     57          1           0       -5.508645   12.654534   10.398210
     58          1           0       -4.628247   15.252721    9.328345
     59          1           0       -5.571457   14.159600    8.576851
 ---------------------------------------------------------------------

 SCF Done:  E(RB3LYP) =  -1300.63393896     A.U. after    2 cycles

 Alpha  occ. eigenvalues --  -19.27907 -19.25083 -19.24907 -19.21516 -14.56309
 Alpha  occ. eigenvalues --  -14.49456 -14.46310 -14.45629 -10.42851 -10.42329
 Alpha  occ. eigenvalues --  -10.39224 -10.38766 -10.34769 -10.33930 -10.33608
 Alpha  occ. eigenvalues --  -10.32333 -10.32170 -10.30816 -10.30176 -10.29981
 Alpha  occ. eigenvalues --  -10.29576 -10.29329 -10.29108 -10.29052 -10.28952
 Alpha  occ. eigenvalues --  -10.28849 -10.28521 -10.28284  -1.20144  -1.17612
 Alpha  occ. eigenvalues --   -1.13486  -1.11956  -1.10890  -1.06899  -1.02470
 Alpha  occ. eigenvalues --   -1.01515  -0.96354  -0.92476  -0.90400  -0.90321
 Alpha  occ. eigenvalues --   -0.87196  -0.85114  -0.84674  -0.84525  -0.79549
 Alpha  occ. eigenvalues --   -0.78617  -0.76248  -0.72953  -0.72403  -0.71315
 Alpha  occ. eigenvalues --   -0.71286  -0.70748  -0.69765  -0.69174  -0.68599
 Alpha  occ. eigenvalues --   -0.68263  -0.67585  -0.64999  -0.62261  -0.61781
 Alpha  occ. eigenvalues --   -0.61460  -0.61096  -0.60844  -0.58858  -0.58285
 Alpha  occ. eigenvalues --   -0.57759  -0.57169  -0.56271  -0.55921  -0.55242
 Alpha  occ. eigenvalues --   -0.54886  -0.54549  -0.54138  -0.53366  -0.53065
 Alpha  occ. eigenvalues --   -0.52361  -0.52122  -0.51917  -0.51515  -0.51003
 Alpha  occ. eigenvalues --   -0.50241  -0.50013  -0.49122  -0.49025  -0.47938
 Alpha  occ. eigenvalues --   -0.47653  -0.46705  -0.46384  -0.46157  -0.45191
 Alpha  occ. eigenvalues --   -0.45043  -0.44447  -0.44191  -0.43991  -0.43415
 Alpha  occ. eigenvalues --   -0.42767  -0.41508  -0.39755  -0.39090  -0.38373
 Alpha  occ. eigenvalues --   -0.37673  -0.35573  -0.35380  -0.35014  -0.34582
 Alpha virt. eigenvalues --   -0.12595  -0.10855  -0.10629  -0.10072  -0.07902
 Alpha virt. eigenvalues --   -0.05777  -0.04372  -0.03671  -0.02764  -0.01368
 Alpha virt. eigenvalues --   -0.00465  -0.00087   0.00564   0.01175   0.01284

 Mulliken charges:
               1
     1  N   -0.755161
     2  C   -0.110396
     3  C    0.636732
     4  O   -0.532004
     5  C   -0.377314
     6  C    0.110883
     7  C   -0.209895
     8  C   -0.187554
     9  C   -0.127269
    10  C   -0.126602
    11  C   -0.125138
    12  H    0.445683
    13  H    0.212605
    14  H    0.195796
    15  H    0.184236
    16  H    0.164039
    17  H    0.136951
    18  H    0.159774
    19  H    0.161173
    20  H    0.162661
    21  H    0.414139
    22  H    0.403981
    23  N   -0.488883
    24  C   -0.022263
    25  C    0.613908
    26  O   -0.500775
    27  C   -0.315065
    28  C   -0.301827
    29  C   -0.142445
    30  H    0.203219
    31  H    0.169902
    32  H    0.195289
    33  H    0.181785
    34  H    0.176480
    35  H    0.173797
    36  H    0.174159
    37  N   -0.594975
    38  C   -0.076686
    39  C    0.647159
    40  O   -0.569702
    41  C   -0.279402
    42  C   -0.290526
    43  C   -0.281043
    44  C   -0.153920
    45  N   -0.801225
    46  O   -0.589765
    47  H    0.490693
    48  H    0.334559
    49  H    0.180948
    50  H    0.153531
    51  H    0.174091
    52  H    0.168899
    53  H    0.151892
    54  H    0.173603
    55  H    0.155961
    56  H    0.168813
    57  H    0.175191
    58  H    0.354343
    59  H    0.352961
 Sum of Mulliken charges =   1.00000

 Dipole moment (field-independent basis, Debye):
    X=            -40.4900    Y=             87.3026    Z=             55.4802  Tot=            111.0821
 Quadrupole moment (field-independent basis, Debye-Ang):
   XX=            225.7574   YY=           1483.2676   ZZ=            489.5828
   XY=           -760.2763   XZ=           -464.9126   YZ=           1023.8827

 Normal termination of Gaussian 16 at Wed May 25 19:10:14 2022.
