 Gaussian 16, Revision C.01,
 Gaussian 16:  ES64L-G16RevC.01  3-Jul-2019

 ----------------------------------------------------------------------
 # B3LYP/6-31G* empiricaldispersion=gd3 guess=read geom=check nosymm in
 tegral(ultrafinegrid)
 ----------------------------------------------------------------------

 ------------------------------------------------------
 Candidate Structure: Conf:622 Charge calc in gas phase
 ------------------------------------------------------
 Structure from the checkpoint file:  "conf-622.chk"
 Charge =  1 Multiplicity = 1

                          Input orientation:
 ---------------------------------------------------------------------
 Center     Atomic      Atomic             Coordinates (Angstroms)
 Number     Number       Type             X           Y           Z
 ---------------------------------------------------------------------
      1          7           0       -9.174331   16.234719   12.378750
      2          6           0       -7.781775   15.966555   12.918348
      3          6           0       -7.573378   17.192161   13.849518
      4          8           0       -8.612856   17.685102   14.304277
      5          6           0       -6.862142   15.690781   11.724895
      6          6           0       -7.535352   14.742404   10.744824
      7          6           0       -8.219978   15.239776    9.626030
      8          6           0       -7.527967   13.360192   10.983813
      9          6           0       -8.874779   14.365536    8.757810
     10          6           0       -8.183728   12.487372   10.116244
     11          6           0       -8.857351   12.989436    9.000965
     12          1           0       -9.093078   17.041137   11.671053
     13          1           0       -7.846170   15.071732   13.549240
     14          1           0       -6.622531   16.640496   11.245058
     15          1           0       -5.933447   15.240496   12.087062
     16          1           0       -8.234205   16.312237    9.448420
     17          1           0       -6.991589   12.967093   11.844616
     18          1           0       -9.392428   14.756665    7.886692
     19          1           0       -8.161109   11.418468   10.305612
     20          1           0       -9.362762   12.310281    8.320803
     21          1           0       -9.745734   16.592784   13.158820
     22          1           0       -9.567619   15.407615   11.932375
     23          7           0       -6.361978   17.720270   14.114172
     24          6           0       -6.394403   18.963272   14.921258
     25          6           0       -7.105008   20.107124   14.164261
     26          8           0       -7.680873   20.986852   14.780969
     27          6           0       -4.917473   19.236811   15.242177
     28          6           0       -4.163082   18.556121   14.095287
     29          6           0       -4.984492   17.286741   13.805757
     30          1           0       -6.994057   18.811653   15.819838
     31          1           0       -4.715153   20.307253   15.319895
     32          1           0       -4.655720   18.779202   16.202259
     33          1           0       -4.159157   19.204006   13.210930
     34          1           0       -3.126312   18.318244   14.344228
     35          1           0       -4.695566   16.452976   14.457633
     36          1           0       -4.878117   16.972821   12.767385
     37          7           0       -7.000490   20.056711   12.788726
     38          6           0       -8.030394   20.634269   11.934633
     39          6           0       -8.967851   19.546393   11.388894
     40          8           0       -8.466841   18.439880   11.036442
     41          6           0       -7.382447   21.396500   10.734932
     42          6           0       -8.257356   21.520913    9.472190
     43          6           0       -9.584575   22.284622    9.676240
     44          6           0      -10.746537   21.797402    8.797206
     45          7           0      -11.032365   20.324320    9.017644
     46          8           0      -10.194545   19.863554   11.261689
     47          1           0      -10.662113   19.992251   10.041218
     48          1           0       -6.619924   19.198215   12.409731
     49          1           0       -8.618264   21.305915   12.558215
     50          1           0       -6.463717   20.865840   10.462463
     51          1           0       -7.079234   22.388322   11.087848
     52          1           0       -7.673341   22.011819    8.686036
     53          1           0       -8.445645   20.502537    9.101027
     54          1           0       -9.441838   23.349648    9.460460
     55          1           0       -9.904585   22.216464   10.715888
     56          1           0      -11.660056   22.338498    9.050911
     57          1           0      -10.555712   21.945007    7.732671
     58          1           0      -12.021856   20.112101    8.882475
     59          1           0      -10.514096   19.759154    8.338543
 ---------------------------------------------------------------------

 SCF Done:  E(RB3LYP) =  -1300.61165159     A.U. after    1 cycles

 Alpha  occ. eigenvalues --  -19.23939 -19.22903 -19.22419 -19.19750 -14.54717
 Alpha  occ. eigenvalues --  -14.53406 -14.48728 -14.44160 -10.41502 -10.40093
 Alpha  occ. eigenvalues --  -10.38381 -10.37083 -10.35792 -10.33945 -10.32442
 Alpha  occ. eigenvalues --  -10.31997 -10.31724 -10.30892 -10.29688 -10.29623
 Alpha  occ. eigenvalues --  -10.29548 -10.29413 -10.29365 -10.29316 -10.29239
 Alpha  occ. eigenvalues --  -10.29075 -10.28684 -10.28579  -1.16925  -1.16076
 Alpha  occ. eigenvalues --   -1.11645  -1.09936  -1.09021  -1.06564  -1.05989
 Alpha  occ. eigenvalues --   -1.00761  -0.96418  -0.91725  -0.90961  -0.89783
 Alpha  occ. eigenvalues --   -0.86699  -0.85286  -0.84925  -0.84408  -0.80407
 Alpha  occ. eigenvalues --   -0.78358  -0.75415  -0.73916  -0.71567  -0.71060
 Alpha  occ. eigenvalues --   -0.70652  -0.70133  -0.69172  -0.68727  -0.68181
 Alpha  occ. eigenvalues --   -0.67780  -0.66929  -0.66121  -0.64122  -0.61933
 Alpha  occ. eigenvalues --   -0.61209  -0.60849  -0.59903  -0.59453  -0.57820
 Alpha  occ. eigenvalues --   -0.57139  -0.56435  -0.56296  -0.55539  -0.55170
 Alpha  occ. eigenvalues --   -0.54635  -0.54298  -0.53922  -0.53547  -0.52770
 Alpha  occ. eigenvalues --   -0.52285  -0.52065  -0.51474  -0.51128  -0.50578
 Alpha  occ. eigenvalues --   -0.49916  -0.49699  -0.48751  -0.48198  -0.47584
 Alpha  occ. eigenvalues --   -0.47281  -0.46924  -0.46289  -0.45724  -0.44815
 Alpha  occ. eigenvalues --   -0.44647  -0.44397  -0.44300  -0.43631  -0.43290
 Alpha  occ. eigenvalues --   -0.42253  -0.39121  -0.38295  -0.37993  -0.37422
 Alpha  occ. eigenvalues --   -0.36686  -0.35618  -0.35042  -0.33411  -0.32701
 Alpha virt. eigenvalues --   -0.11689  -0.10863  -0.10649  -0.08851  -0.07816
 Alpha virt. eigenvalues --   -0.06438  -0.04451  -0.03379  -0.02947  -0.01878
 Alpha virt. eigenvalues --   -0.01052  -0.00256   0.00452   0.01169   0.01832

 Mulliken charges:
               1
     1  N   -0.770777
     2  C   -0.098211
     3  C    0.638007
     4  O   -0.531507
     5  C   -0.383563
     6  C    0.107908
     7  C   -0.209848
     8  C   -0.183645
     9  C   -0.127718
    10  C   -0.125579
    11  C   -0.125645
    12  H    0.442431
    13  H    0.213451
    14  H    0.194921
    15  H    0.185793
    16  H    0.155939
    17  H    0.141760
    18  H    0.147550
    19  H    0.162517
    20  H    0.160792
    21  H    0.417645
    22  H    0.396189
    23  N   -0.490488
    24  C   -0.040289
    25  C    0.609915
    26  O   -0.489338
    27  C   -0.308687
    28  C   -0.308286
    29  C   -0.146889
    30  H    0.209717
    31  H    0.194738
    32  H    0.174166
    33  H    0.169368
    34  H    0.180226
    35  H    0.179354
    36  H    0.175915
    37  N   -0.599219
    38  C   -0.040730
    39  C    0.608199
    40  O   -0.609610
    41  C   -0.271409
    42  C   -0.301162
    43  C   -0.288939
    44  C   -0.178480
    45  N   -0.777571
    46  O   -0.609455
    47  H    0.467212
    48  H    0.326436
    49  H    0.204225
    50  H    0.152071
    51  H    0.174895
    52  H    0.167170
    53  H    0.123444
    54  H    0.177814
    55  H    0.196279
    56  H    0.201554
    57  H    0.191015
    58  H    0.388455
    59  H    0.379974
 Sum of Mulliken charges =   1.00000

 Dipole moment (field-independent basis, Debye):
    X=            -41.3054    Y=             83.7783    Z=             49.2065  Tot=            105.5757
 Quadrupole moment (field-independent basis, Debye-Ang):
   XX=            233.4287   YY=           1345.1462   ZZ=            360.8948
   XY=           -732.3639   XZ=           -385.7873   YZ=            823.1447

 Normal termination of Gaussian 16 at Wed May 25 19:10:04 2022.
