 Gaussian 16, Revision C.01,
 Gaussian 16:  ES64L-G16RevC.01  3-Jul-2019

 ----------------------------------------------------------------------
 # B3LYP/6-31G* empiricaldispersion=gd3 guess=read geom=check nosymm in
 tegral(ultrafinegrid)
 ----------------------------------------------------------------------

 ------------------------------------------------------
 Candidate Structure: Conf:614 Charge calc in gas phase
 ------------------------------------------------------
 Structure from the checkpoint file:  "conf-614.chk"
 Charge =  1 Multiplicity = 1

                          Input orientation:
 ---------------------------------------------------------------------
 Center     Atomic      Atomic             Coordinates (Angstroms)
 Number     Number       Type             X           Y           Z
 ---------------------------------------------------------------------
      1          7           0       -9.956827   16.480451   11.709489
      2          6           0       -9.549294   16.905471   13.104574
      3          6           0       -9.843060   18.425682   13.111099
      4          8           0      -10.549875   18.866122   12.201585
      5          6           0       -8.084833   16.480556   13.342986
      6          6           0       -7.845517   15.038719   12.940660
      7          6           0       -7.255947   14.738129   11.703956
      8          6           0       -8.268229   13.991001   13.771192
      9          6           0       -7.085723   13.408597   11.310368
     10          6           0       -8.098130   12.663745   13.376109
     11          6           0       -7.506802   12.371002   12.144193
     12          1           0       -9.267020   16.872721   11.016146
     13          1           0      -10.215296   16.380371   13.797872
     14          1           0       -7.431327   17.146256   12.770926
     15          1           0       -7.862334   16.617465   14.403478
     16          1           0       -6.926432   15.546431   11.055401
     17          1           0       -8.716255   14.213071   14.738041
     18          1           0       -6.619197   13.185281   10.355384
     19          1           0       -8.418903   11.859605   14.031684
     20          1           0       -7.370464   11.337895   11.839041
     21          1           0      -10.861606   16.910535   11.478930
     22          1           0       -9.974747   15.459940   11.624270
     23          7           0       -9.247827   19.247021   14.005552
     24          6           0       -9.313518   20.708869   13.731300
     25          6           0       -8.721707   20.971565   12.334649
     26          8           0       -9.298395   21.634520   11.481188
     27          6           0       -8.551233   21.318426   14.922908
     28          6           0       -8.791674   20.303851   16.053576
     29          6           0       -8.673045   18.952105   15.335621
     30          1           0      -10.353947   21.039281   13.687380
     31          1           0       -7.481039   21.390101   14.695411
     32          1           0       -8.910316   22.322640   15.156448
     33          1           0       -8.076251   20.397617   16.874190
     34          1           0       -9.800605   20.421906   16.463086
     35          1           0       -9.225970   18.147595   15.828369
     36          1           0       -7.621391   18.651612   15.249015
     37          7           0       -7.526121   20.343678   12.090698
     38          6           0       -7.099044   20.075300   10.711713
     39          6           0       -8.106425   19.032977   10.194725
     40          8           0       -7.940751   17.826802   10.367894
     41          6           0       -5.654389   19.579303   10.668430
     42          6           0       -5.165810   19.216956    9.257212
     43          6           0       -5.244118   20.361251    8.237937
     44          6           0       -4.616891   19.998636    6.875675
     45          7           0       -5.232505   18.895668    6.140364
     46          8           0       -9.228355   19.482450    9.654134
     47          1           0       -9.348272   20.438455    9.859543
     48          1           0       -7.194546   19.685202   12.784774
     49          1           0       -7.207292   21.004830   10.149857
     50          1           0       -5.564516   18.698458   11.318359
     51          1           0       -5.026401   20.369231   11.097256
     52          1           0       -4.123642   18.882350    9.340747
     53          1           0       -5.736511   18.353642    8.892561
     54          1           0       -4.737268   21.249556    8.642586
     55          1           0       -6.293079   20.649670    8.068393
     56          1           0       -4.639431   20.884172    6.229641
     57          1           0       -3.557269   19.751240    7.022439
     58          1           0       -5.168894   18.023661    6.660609
     59          1           0       -6.221690   19.077095    5.978406
 ---------------------------------------------------------------------

 SCF Done:  E(RB3LYP) =  -1300.60331541     A.U. after    1 cycles

 Alpha  occ. eigenvalues --  -19.31801 -19.27867 -19.26717 -19.24933 -14.58247
 Alpha  occ. eigenvalues --  -14.51157 -14.49385 -14.38209 -10.45515 -10.44051
 Alpha  occ. eigenvalues --  -10.41944 -10.40937 -10.36483 -10.36247 -10.36182
 Alpha  occ. eigenvalues --  -10.34097 -10.31977 -10.31842 -10.31756 -10.30636
 Alpha  occ. eigenvalues --  -10.30375 -10.30284 -10.30064 -10.29999 -10.29785
 Alpha  occ. eigenvalues --  -10.28109 -10.27894 -10.26703  -1.23472  -1.19544
 Alpha  occ. eigenvalues --   -1.16729  -1.15002  -1.12922  -1.08788  -1.05630
 Alpha  occ. eigenvalues --   -0.97548  -0.95139  -0.94167  -0.91889  -0.91610
 Alpha  occ. eigenvalues --   -0.88546  -0.86377  -0.85663  -0.84458  -0.80236
 Alpha  occ. eigenvalues --   -0.79027  -0.78068  -0.74978  -0.73782  -0.73137
 Alpha  occ. eigenvalues --   -0.72307  -0.72119  -0.71548  -0.70984  -0.69897
 Alpha  occ. eigenvalues --   -0.69205  -0.67678  -0.66432  -0.63934  -0.63174
 Alpha  occ. eigenvalues --   -0.62959  -0.62553  -0.61603  -0.60372  -0.59327
 Alpha  occ. eigenvalues --   -0.58170  -0.57595  -0.57189  -0.56703  -0.56512
 Alpha  occ. eigenvalues --   -0.56022  -0.55537  -0.55061  -0.54549  -0.53893
 Alpha  occ. eigenvalues --   -0.53402  -0.53130  -0.52706  -0.52299  -0.51879
 Alpha  occ. eigenvalues --   -0.51377  -0.51001  -0.50330  -0.49683  -0.49393
 Alpha  occ. eigenvalues --   -0.48506  -0.47988  -0.47263  -0.47237  -0.46815
 Alpha  occ. eigenvalues --   -0.45614  -0.45246  -0.45053  -0.44523  -0.44184
 Alpha  occ. eigenvalues --   -0.42506  -0.42017  -0.40986  -0.40748  -0.40058
 Alpha  occ. eigenvalues --   -0.37959  -0.37689  -0.36373  -0.36065  -0.30099
 Alpha virt. eigenvalues --   -0.14448  -0.13724  -0.11940  -0.11631  -0.11207
 Alpha virt. eigenvalues --   -0.07353  -0.06977  -0.04747  -0.02963  -0.02764
 Alpha virt. eigenvalues --   -0.01956  -0.01274  -0.00659   0.00054   0.00197

 Mulliken charges:
               1
     1  N   -0.755520
     2  C   -0.114940
     3  C    0.624150
     4  O   -0.515680
     5  C   -0.384842
     6  C    0.115644
     7  C   -0.216662
     8  C   -0.187305
     9  C   -0.126717
    10  C   -0.125987
    11  C   -0.123890
    12  H    0.447895
    13  H    0.218689
    14  H    0.182117
    15  H    0.189223
    16  H    0.169150
    17  H    0.137361
    18  H    0.163640
    19  H    0.164706
    20  H    0.167021
    21  H    0.420635
    22  H    0.408800
    23  N   -0.485597
    24  C   -0.022861
    25  C    0.616623
    26  O   -0.515858
    27  C   -0.321080
    28  C   -0.299709
    29  C   -0.149776
    30  H    0.213555
    31  H    0.170165
    32  H    0.202058
    33  H    0.187552
    34  H    0.183295
    35  H    0.180628
    36  H    0.170516
    37  N   -0.593677
    38  C   -0.061022
    39  C    0.643329
    40  O   -0.526185
    41  C   -0.286550
    42  C   -0.279832
    43  C   -0.271796
    44  C   -0.147642
    45  N   -0.699138
    46  O   -0.548664
    47  H    0.462604
    48  H    0.337624
    49  H    0.202563
    50  H    0.142839
    51  H    0.172018
    52  H    0.157468
    53  H    0.141810
    54  H    0.142241
    55  H    0.120660
    56  H    0.159542
    57  H    0.152338
    58  H    0.297232
    59  H    0.295235
 Sum of Mulliken charges =   1.00000

 Dipole moment (field-independent basis, Debye):
    X=            -40.9364    Y=             83.4540    Z=             63.8023  Tot=            112.7435
 Quadrupole moment (field-independent basis, Debye-Ang):
   XX=            194.5294   YY=           1324.4009   ZZ=            696.0026
   XY=           -698.2102   XZ=           -546.0155   YZ=           1118.0807

 Normal termination of Gaussian 16 at Wed May 25 19:10:01 2022.
