 Gaussian 16, Revision C.01,
 Gaussian 16:  ES64L-G16RevC.01  3-Jul-2019

 ----------------------------------------------------------------------
 # B3LYP/6-31G* empiricaldispersion=gd3 guess=read geom=check nosymm in
 tegral(ultrafinegrid)
 ----------------------------------------------------------------------

 ------------------------------------------------------
 Candidate Structure: Conf:981 Charge calc in gas phase
 ------------------------------------------------------
 Structure from the checkpoint file:  "conf-981.chk"
 Charge =  1 Multiplicity = 1

                          Input orientation:
 ---------------------------------------------------------------------
 Center     Atomic      Atomic             Coordinates (Angstroms)
 Number     Number       Type             X           Y           Z
 ---------------------------------------------------------------------
      1          7           0       -9.654491   19.960618   12.614343
      2          6           0       -8.760611   20.545251   11.538475
      3          6           0       -8.797153   19.421512   10.459678
      4          8           0       -9.821339   18.725662   10.458573
      5          6           0       -7.437057   20.992814   12.188912
      6          6           0       -7.682509   21.773826   13.466462
      7          6           0       -7.576182   21.144014   14.715266
      8          6           0       -8.078123   23.117690   13.410522
      9          6           0       -7.853107   21.850954   15.887698
     10          6           0       -8.355920   23.822648   14.582379
     11          6           0       -8.243715   23.189889   15.823054
     12          1           0       -9.953280   20.668963   13.289658
     13          1           0       -9.297024   21.416204   11.146393
     14          1           0       -6.821843   20.112078   12.397860
     15          1           0       -6.903400   21.620744   11.472097
     16          1           0       -7.272137   20.100650   14.765498
     17          1           0       -8.152222   23.620346   12.448081
     18          1           0       -7.756015   21.358170   16.850761
     19          1           0       -8.650664   24.866385   14.527451
     20          1           0       -8.453944   23.740447   16.735014
     21          1           0       -9.131710   19.206902   13.106133
     22          1           0      -10.438650   19.503193   12.118040
     23          7           0       -7.762897   19.151155    9.639270
     24          6           0       -7.848269   17.889163    8.858055
     25          6           0       -7.754559   16.647222    9.773801
     26          8           0       -8.114325   15.556291    9.353204
     27          6           0       -6.689032   18.000063    7.853545
     28          6           0       -5.668249   18.888738    8.577112
     29          6           0       -6.541308   19.921838    9.304184
     30          1           0       -8.820666   17.810867    8.370358
     31          1           0       -6.300760   17.016007    7.582269
     32          1           0       -7.042574   18.487341    6.938688
     33          1           0       -5.106001   18.299829    9.310844
     34          1           0       -4.951174   19.364643    7.904145
     35          1           0       -6.805400   20.760748    8.649142
     36          1           0       -6.049692   20.312743   10.192640
     37          7           0       -7.240027   16.864023   11.014282
     38          6           0       -7.366987   15.910326   12.102695
     39          6           0       -7.688620   16.680089   13.355828
     40          8           0       -7.922356   17.891184   13.412277
     41          6           0       -6.143017   14.964040   12.246561
     42          6           0       -6.475837   13.534899   12.712072
     43          6           0       -7.180861   12.640983   11.660276
     44          6           0       -8.701046   12.492888   11.803844
     45          7           0       -9.410665   13.748276   11.510601
     46          8           0       -7.707651   15.912185   14.443556
     47          1           0       -7.932227   16.469776   15.212656
     48          1           0       -7.009295   17.811930   11.268175
     49          1           0       -8.259096   15.266687   11.917195
     50          1           0       -5.400673   15.413051   12.918416
     51          1           0       -5.680106   14.917187   11.255219
     52          1           0       -5.523314   13.066038   12.985876
     53          1           0       -7.068396   13.572947   13.633681
     54          1           0       -6.757291   11.631195   11.720788
     55          1           0       -6.953836   13.003029   10.647548
     56          1           0       -9.031016   11.662978   11.157844
     57          1           0       -8.940406   12.204169   12.835400
     58          1           0       -9.284633   13.995206   10.528400
     59          1           0      -10.411176   13.632109   11.663610
 ---------------------------------------------------------------------

 SCF Done:  E(RB3LYP) =  -1300.60568383     A.U. after    1 cycles

 Alpha  occ. eigenvalues --  -19.32468 -19.27873 -19.25775 -19.21441 -14.58020
 Alpha  occ. eigenvalues --  -14.50331 -14.46232 -14.39100 -10.45356 -10.43345
 Alpha  occ. eigenvalues --  -10.40544 -10.38912 -10.35124 -10.34152 -10.33814
 Alpha  occ. eigenvalues --  -10.32832 -10.31989 -10.30612 -10.30553 -10.30446
 Alpha  occ. eigenvalues --  -10.30163 -10.30100 -10.29921 -10.29862 -10.27815
 Alpha  occ. eigenvalues --  -10.27788 -10.25860 -10.25179  -1.23839  -1.18666
 Alpha  occ. eigenvalues --   -1.14628  -1.13530  -1.12582  -1.07486  -1.02853
 Alpha  occ. eigenvalues --   -0.97514  -0.95468  -0.93268  -0.91166  -0.89367
 Alpha  occ. eigenvalues --   -0.86940  -0.85937  -0.85701  -0.83898  -0.79922
 Alpha  occ. eigenvalues --   -0.78262  -0.77277  -0.74422  -0.73670  -0.72193
 Alpha  occ. eigenvalues --   -0.71418  -0.70894  -0.70413  -0.69735  -0.68942
 Alpha  occ. eigenvalues --   -0.68486  -0.64999  -0.64176  -0.64008  -0.62819
 Alpha  occ. eigenvalues --   -0.62094  -0.61521  -0.60313  -0.59087  -0.58306
 Alpha  occ. eigenvalues --   -0.57529  -0.56840  -0.56636  -0.56330  -0.56017
 Alpha  occ. eigenvalues --   -0.54898  -0.54271  -0.53685  -0.53383  -0.53183
 Alpha  occ. eigenvalues --   -0.52642  -0.52214  -0.52162  -0.51577  -0.51098
 Alpha  occ. eigenvalues --   -0.50754  -0.49927  -0.48965  -0.48798  -0.47956
 Alpha  occ. eigenvalues --   -0.47469  -0.47088  -0.46831  -0.45741  -0.45408
 Alpha  occ. eigenvalues --   -0.45020  -0.44907  -0.44396  -0.43251  -0.41728
 Alpha  occ. eigenvalues --   -0.40832  -0.40351  -0.40158  -0.39886  -0.38897
 Alpha  occ. eigenvalues --   -0.36462  -0.36083  -0.35648  -0.34555  -0.31303
 Alpha virt. eigenvalues --   -0.13538  -0.12286  -0.11907  -0.11676  -0.07862
 Alpha virt. eigenvalues --   -0.06749  -0.05171  -0.04256  -0.03272  -0.02468
 Alpha virt. eigenvalues --   -0.01207  -0.00571   0.00698   0.01113   0.01333

 Mulliken charges:
               1
     1  N   -0.762865
     2  C   -0.105249
     3  C    0.622191
     4  O   -0.526917
     5  C   -0.391442
     6  C    0.114720
     7  C   -0.211476
     8  C   -0.186892
     9  C   -0.126735
    10  C   -0.125849
    11  C   -0.124079
    12  H    0.408044
    13  H    0.223045
    14  H    0.188773
    15  H    0.195255
    16  H    0.151378
    17  H    0.142666
    18  H    0.159542
    19  H    0.165916
    20  H    0.166788
    21  H    0.448487
    22  H    0.422104
    23  N   -0.492092
    24  C   -0.039924
    25  C    0.620719
    26  O   -0.514048
    27  C   -0.307302
    28  C   -0.307839
    29  C   -0.148250
    30  H    0.214306
    31  H    0.199229
    32  H    0.176489
    33  H    0.169545
    34  H    0.185518
    35  H    0.183949
    36  H    0.176731
    37  N   -0.612998
    38  C   -0.073325
    39  C    0.597255
    40  O   -0.551607
    41  C   -0.274341
    42  C   -0.270511
    43  C   -0.275595
    44  C   -0.135655
    45  N   -0.755806
    46  O   -0.520427
    47  H    0.425931
    48  H    0.332984
    49  H    0.291089
    50  H    0.141217
    51  H    0.169335
    52  H    0.149886
    53  H    0.156847
    54  H    0.151944
    55  H    0.152212
    56  H    0.138208
    57  H    0.145220
    58  H    0.344480
    59  H    0.309219
 Sum of Mulliken charges =   1.00000

 Dipole moment (field-independent basis, Debye):
    X=            -39.0836    Y=             94.2468    Z=             59.7298  Tot=            118.2270
 Quadrupole moment (field-independent basis, Debye-Ang):
   XX=            168.3464   YY=           1728.7454   ZZ=            613.5903
   XY=           -772.8669   XZ=           -499.9157   YZ=           1169.0644

 Normal termination of Gaussian 16 at Wed May 25 19:10:03 2022.
