 Gaussian 16, Revision C.01,
 Gaussian 16:  ES64L-G16RevC.01  3-Jul-2019

 ----------------------------------------------------------------------
 # B3LYP/6-31G* empiricaldispersion=gd3 guess=read geom=check nosymm in
 tegral(ultrafinegrid)
 ----------------------------------------------------------------------

 ------------------------------------------------------
 Candidate Structure: Conf:497 Charge calc in gas phase
 ------------------------------------------------------
 Structure from the checkpoint file:  "conf-497.chk"
 Charge =  1 Multiplicity = 1

                          Input orientation:
 ---------------------------------------------------------------------
 Center     Atomic      Atomic             Coordinates (Angstroms)
 Number     Number       Type             X           Y           Z
 ---------------------------------------------------------------------
      1          7           0       -9.658724   19.239962   13.670212
      2          6           0       -8.297381   18.923808   14.251937
      3          6           0       -7.347160   19.788801   13.386884
      4          8           0       -7.862038   20.662227   12.682164
      5          6           0       -8.087437   17.394466   14.210780
      6          6           0       -9.305500   16.646449   14.715241
      7          6           0      -10.215944   16.085644   13.807305
      8          6           0       -9.572299   16.563323   16.089414
      9          6           0      -11.368298   15.444188   14.267790
     10          6           0      -10.724266   15.923536   16.548575
     11          6           0      -11.624242   15.363416   15.637932
     12          1           0       -9.702775   18.830588   12.713619
     13          1           0       -8.313472   19.280129   15.287659
     14          1           0       -7.863715   17.102520   13.180826
     15          1           0       -7.217334   17.156073   14.825649
     16          1           0      -10.012928   16.142701   12.739815
     17          1           0       -8.867413   16.984102   16.803979
     18          1           0      -12.060188   15.001597   13.557158
     19          1           0      -10.914742   15.854496   17.615449
     20          1           0      -12.517427   14.860602   15.996169
     21          1           0       -9.731336   20.258010   13.542990
     22          1           0      -10.411410   18.853124   14.247300
     23          7           0       -6.029634   19.511847   13.345619
     24          6           0       -5.215284   20.205907   12.315770
     25          6           0       -5.751648   19.941836   10.897959
     26          8           0       -5.693943   20.789491   10.028812
     27          6           0       -3.796052   19.666277   12.576025
     28          6           0       -3.800758   19.371547   14.084366
     29          6           0       -5.192873   18.765291   14.311301
     30          1           0       -5.275817   21.287583   12.460081
     31          1           0       -3.634538   18.743055   12.007081
     32          1           0       -3.033121   20.385863   12.273537
     33          1           0       -3.003028   18.692052   14.394480
     34          1           0       -3.700642   20.301097   14.655249
     35          1           0       -5.563071   18.897208   15.332101
     36          1           0       -5.190931   17.694815   14.073410
     37          7           0       -6.246712   18.669947   10.696089
     38          6           0       -7.134155   18.378439    9.586774
     39          6           0       -8.582219   18.521757   10.049689
     40          8           0       -8.980442   18.192342   11.164258
     41          6           0       -6.892787   16.950008    9.045738
     42          6           0       -7.770962   16.541762    7.854072
     43          6           0       -7.581214   17.407278    6.602379
     44          6           0       -8.447109   16.949729    5.411677
     45          7           0       -9.897949   17.022673    5.593323
     46          8           0       -9.388474   18.996146    9.103179
     47          1           0      -10.304687   19.014219    9.442084
     48          1           0       -6.361208   18.084320   11.512205
     49          1           0       -6.940741   19.123301    8.813778
     50          1           0       -7.036192   16.242661    9.874978
     51          1           0       -5.834006   16.905006    8.766451
     52          1           0       -7.536053   15.497756    7.608635
     53          1           0       -8.828694   16.551287    8.150281
     54          1           0       -6.522129   17.390389    6.307564
     55          1           0       -7.828402   18.454421    6.825584
     56          1           0       -8.190678   17.557067    4.535596
     57          1           0       -8.196190   15.912913    5.152239
     58          1           0      -10.205077   16.388429    6.327542
     59          1           0      -10.170707   17.962148    5.878817
 ---------------------------------------------------------------------

 SCF Done:  E(RB3LYP) =  -1300.60084210     A.U. after    3 cycles

 Alpha  occ. eigenvalues --  -19.33622 -19.28760 -19.26183 -19.22031 -14.59182
 Alpha  occ. eigenvalues --  -14.50524 -14.46834 -14.37965 -10.46129 -10.43574
 Alpha  occ. eigenvalues --  -10.41023 -10.39459 -10.35847 -10.35018 -10.34709
 Alpha  occ. eigenvalues --  -10.34160 -10.32418 -10.31052 -10.31002 -10.30969
 Alpha  occ. eigenvalues --  -10.30676 -10.30546 -10.30517 -10.30256 -10.29697
 Alpha  occ. eigenvalues --  -10.27667 -10.27380 -10.25823  -1.24777  -1.19076
 Alpha  occ. eigenvalues --   -1.15688  -1.14294  -1.13503  -1.08088  -1.03650
 Alpha  occ. eigenvalues --   -0.97962  -0.94782  -0.93983  -0.91556  -0.90828
 Alpha  occ. eigenvalues --   -0.87739  -0.86491  -0.86144  -0.84315  -0.80265
 Alpha  occ. eigenvalues --   -0.79233  -0.77757  -0.75168  -0.74512  -0.72862
 Alpha  occ. eigenvalues --   -0.72017  -0.71713  -0.71003  -0.70194  -0.69979
 Alpha  occ. eigenvalues --   -0.68468  -0.66072  -0.65326  -0.63822  -0.63552
 Alpha  occ. eigenvalues --   -0.62710  -0.62627  -0.61639  -0.59583  -0.59306
 Alpha  occ. eigenvalues --   -0.57875  -0.57454  -0.57285  -0.56520  -0.56222
 Alpha  occ. eigenvalues --   -0.55600  -0.54696  -0.54223  -0.54039  -0.53996
 Alpha  occ. eigenvalues --   -0.53450  -0.52934  -0.52718  -0.52083  -0.51338
 Alpha  occ. eigenvalues --   -0.50655  -0.50240  -0.49729  -0.49139  -0.48806
 Alpha  occ. eigenvalues --   -0.47827  -0.47472  -0.47179  -0.46275  -0.46205
 Alpha  occ. eigenvalues --   -0.45850  -0.45624  -0.45504  -0.44273  -0.43511
 Alpha  occ. eigenvalues --   -0.42150  -0.41474  -0.40460  -0.40348  -0.38775
 Alpha  occ. eigenvalues --   -0.36889  -0.36658  -0.36482  -0.35184  -0.29849
 Alpha virt. eigenvalues --   -0.14006  -0.13209  -0.12150  -0.12080  -0.08656
 Alpha virt. eigenvalues --   -0.07885  -0.06068  -0.05535  -0.04429  -0.03391
 Alpha virt. eigenvalues --   -0.02468  -0.01627  -0.00313   0.00361   0.00451

 Mulliken charges:
               1
     1  N   -0.749450
     2  C   -0.117577
     3  C    0.633096
     4  O   -0.527672
     5  C   -0.383318
     6  C    0.115249
     7  C   -0.213931
     8  C   -0.188191
     9  C   -0.125663
    10  C   -0.125466
    11  C   -0.124377
    12  H    0.441689
    13  H    0.218322
    14  H    0.189562
    15  H    0.193114
    16  H    0.153747
    17  H    0.141076
    18  H    0.162814
    19  H    0.166900
    20  H    0.168461
    21  H    0.418729
    22  H    0.409546
    23  N   -0.487491
    24  C   -0.024543
    25  C    0.615476
    26  O   -0.480595
    27  C   -0.315710
    28  C   -0.300109
    29  C   -0.147347
    30  H    0.208426
    31  H    0.170621
    32  H    0.200327
    33  H    0.184420
    34  H    0.179160
    35  H    0.173954
    36  H    0.172933
    37  N   -0.604765
    38  C   -0.055218
    39  C    0.625853
    40  O   -0.534751
    41  C   -0.279770
    42  C   -0.269919
    43  C   -0.272462
    44  C   -0.149195
    45  N   -0.698481
    46  O   -0.517521
    47  H    0.422502
    48  H    0.331650
    49  H    0.227850
    50  H    0.136596
    51  H    0.180048
    52  H    0.157681
    53  H    0.117828
    54  H    0.142757
    55  H    0.138722
    56  H    0.159677
    57  H    0.150092
    58  H    0.293015
    59  H    0.291628
 Sum of Mulliken charges =   1.00000

 Dipole moment (field-independent basis, Debye):
    X=            -40.6637    Y=             86.3796    Z=             66.7375  Tot=            116.4855
 Quadrupole moment (field-independent basis, Debye-Ang):
   XX=            222.9353   YY=           1390.0576   ZZ=            774.9075
   XY=           -731.4521   XZ=           -566.7692   YZ=           1208.7868

 Normal termination of Gaussian 16 at Wed May 25 19:10:27 2022.
