 Gaussian 16, Revision C.01,
 Gaussian 16:  ES64L-G16RevC.01  3-Jul-2019

 ----------------------------------------------------------------------
 # B3LYP/6-31G* empiricaldispersion=gd3 guess=read geom=check nosymm in
 tegral(ultrafinegrid)
 ----------------------------------------------------------------------

 ------------------------------------------------------
 Candidate Structure: Conf:669 Charge calc in gas phase
 ------------------------------------------------------
 Structure from the checkpoint file:  "conf-669.chk"
 Charge =  1 Multiplicity = 1

                          Input orientation:
 ---------------------------------------------------------------------
 Center     Atomic      Atomic             Coordinates (Angstroms)
 Number     Number       Type             X           Y           Z
 ---------------------------------------------------------------------
      1          7           0       -7.200586   18.335114   14.335903
      2          6           0       -7.625183   19.575363   13.582892
      3          6           0       -9.100670   19.291721   13.210271
      4          8           0       -9.636916   18.297970   13.711237
      5          6           0       -6.660564   19.768322   12.389221
      6          6           0       -5.208441   19.628627   12.798816
      7          6           0       -4.533007   18.416438   12.587649
      8          6           0       -4.542448   20.681411   13.442313
      9          6           0       -3.208913   18.266533   13.007137
     10          6           0       -3.220029   20.529504   13.860437
     11          6           0       -2.551806   19.321380   13.643520
     12          1           0       -7.266814   17.518115   13.671555
     13          1           0       -7.541623   20.415419   14.280653
     14          1           0       -6.903774   19.023829   11.626231
     15          1           0       -6.841577   20.758793   11.967272
     16          1           0       -5.045760   17.597400   12.087571
     17          1           0       -5.053694   21.629117   13.600499
     18          1           0       -2.690489   17.328899   12.829373
     19          1           0       -2.709208   21.355022   14.347169
     20          1           0       -1.520984   19.205901   13.964648
     21          1           0       -7.847818   18.147819   15.107288
     22          1           0       -6.233243   18.426850   14.664540
     23          7           0       -9.708572   20.052809   12.278067
     24          6           0      -10.993558   19.573402   11.702603
     25          6           0      -10.840067   18.194880   11.023917
     26          8           0      -11.752930   17.395492   11.001831
     27          6           0      -11.391814   20.714094   10.744625
     28          6           0      -10.749558   21.957687   11.379397
     29          6           0       -9.386763   21.432018   11.849670
     30          1           0      -11.727566   19.431719   12.499507
     31          1           0      -10.969134   20.534665    9.748929
     32          1           0      -12.475825   20.786433   10.640038
     33          1           0      -10.648306   22.794318   10.683581
     34          1           0      -11.336899   22.295397   12.240254
     35          1           0       -8.955709   22.005774   12.675155
     36          1           0       -8.672419   21.423611   11.017249
     37          7           0       -9.607167   17.979030   10.438853
     38          6           0       -9.025407   16.637725   10.272358
     39          6           0       -8.602546   16.263519   11.694819
     40          8           0       -7.537802   16.636294   12.198875
     41          6           0       -7.873520   16.723730    9.266837
     42          6           0       -7.051309   15.446386    9.049469
     43          6           0       -7.845343   14.231793    8.511557
     44          6           0       -7.943056   13.099118    9.537508
     45          7           0       -8.586610   13.587801   10.767119
     46          8           0       -9.600524   15.744058   12.397722
     47          1           0       -9.386975   15.795083   13.347120
     48          1           0       -8.921032   18.709818   10.575858
     49          1           0       -9.820686   15.969451    9.945691
     50          1           0       -7.191711   17.520909    9.597386
     51          1           0       -8.310720   17.058337    8.318371
     52          1           0       -6.246870   15.702546    8.350541
     53          1           0       -6.568094   15.178104    9.995625
     54          1           0       -7.374451   13.838514    7.603311
     55          1           0       -8.858827   14.535592    8.211250
     56          1           0       -8.452931   12.230187    9.092501
     57          1           0       -6.930115   12.771954    9.802267
     58          1           0       -9.596402   13.640202   10.637854
     59          1           0       -8.442257   12.930767   11.531696
 ---------------------------------------------------------------------

 SCF Done:  E(RB3LYP) =  -1300.60345142     A.U. after    2 cycles

 Alpha  occ. eigenvalues --  -19.30759 -19.26608 -19.26224 -19.21768 -14.58521
 Alpha  occ. eigenvalues --  -14.50372 -14.46616 -14.40447 -10.44259 -10.43565
 Alpha  occ. eigenvalues --  -10.40718 -10.39109 -10.35715 -10.34549 -10.34118
 Alpha  occ. eigenvalues --  -10.33832 -10.31955 -10.30812 -10.30626 -10.30500
 Alpha  occ. eigenvalues --  -10.30402 -10.30069 -10.30031 -10.29813 -10.28789
 Alpha  occ. eigenvalues --  -10.28645 -10.26715 -10.26180  -1.22422  -1.18816
 Alpha  occ. eigenvalues --   -1.13939  -1.13569  -1.12760  -1.07972  -1.03219
 Alpha  occ. eigenvalues --   -0.97500  -0.96727  -0.93707  -0.91290  -0.89760
 Alpha  occ. eigenvalues --   -0.87336  -0.86108  -0.85662  -0.83945  -0.79901
 Alpha  occ. eigenvalues --   -0.79105  -0.77363  -0.74422  -0.73612  -0.72597
 Alpha  occ. eigenvalues --   -0.71687  -0.71333  -0.70600  -0.69699  -0.69174
 Alpha  occ. eigenvalues --   -0.67693  -0.65883  -0.64812  -0.63415  -0.62615
 Alpha  occ. eigenvalues --   -0.62193  -0.61804  -0.60410  -0.59386  -0.59219
 Alpha  occ. eigenvalues --   -0.57563  -0.57045  -0.56998  -0.56143  -0.55768
 Alpha  occ. eigenvalues --   -0.55331  -0.54768  -0.54130  -0.53719  -0.53164
 Alpha  occ. eigenvalues --   -0.52922  -0.52412  -0.52213  -0.51297  -0.51052
 Alpha  occ. eigenvalues --   -0.50771  -0.50316  -0.49565  -0.48924  -0.48191
 Alpha  occ. eigenvalues --   -0.47491  -0.47199  -0.47065  -0.45855  -0.45651
 Alpha  occ. eigenvalues --   -0.45320  -0.45231  -0.44634  -0.43633  -0.42106
 Alpha  occ. eigenvalues --   -0.41503  -0.40985  -0.40590  -0.40244  -0.38744
 Alpha  occ. eigenvalues --   -0.36399  -0.36128  -0.35979  -0.34727  -0.32794
 Alpha virt. eigenvalues --   -0.13683  -0.11966  -0.11689  -0.11594  -0.07998
 Alpha virt. eigenvalues --   -0.07517  -0.05688  -0.04582  -0.03370  -0.02358
 Alpha virt. eigenvalues --   -0.02155  -0.01788  -0.00688  -0.00199   0.00471

 Mulliken charges:
               1
     1  N   -0.750879
     2  C   -0.116889
     3  C    0.621802
     4  O   -0.538980
     5  C   -0.389505
     6  C    0.110569
     7  C   -0.221733
     8  C   -0.184353
     9  C   -0.125997
    10  C   -0.126070
    11  C   -0.123772
    12  H    0.440936
    13  H    0.214809
    14  H    0.194444
    15  H    0.190868
    16  H    0.172812
    17  H    0.138627
    18  H    0.163775
    19  H    0.164859
    20  H    0.166760
    21  H    0.409697
    22  H    0.407580
    23  N   -0.482518
    24  C   -0.025925
    25  C    0.619451
    26  O   -0.475490
    27  C   -0.316570
    28  C   -0.297395
    29  C   -0.150540
    30  H    0.208614
    31  H    0.172232
    32  H    0.200233
    33  H    0.184146
    34  H    0.178310
    35  H    0.173666
    36  H    0.173468
    37  N   -0.624908
    38  C   -0.014170
    39  C    0.683378
    40  O   -0.559706
    41  C   -0.289832
    42  C   -0.259369
    43  C   -0.266910
    44  C   -0.152102
    45  N   -0.743593
    46  O   -0.522652
    47  H    0.416697
    48  H    0.327796
    49  H    0.200208
    50  H    0.129635
    51  H    0.169228
    52  H    0.149231
    53  H    0.157605
    54  H    0.156306
    55  H    0.139325
    56  H    0.143815
    57  H    0.151312
    58  H    0.315523
    59  H    0.312141
 Sum of Mulliken charges =   1.00000

 Dipole moment (field-independent basis, Debye):
    X=            -34.3379    Y=             90.7852    Z=             61.9629  Tot=            115.1540
 Quadrupole moment (field-independent basis, Debye-Ang):
   XX=             97.3371   YY=           1599.5856   ZZ=            661.0451
   XY=           -659.7695   XZ=           -433.2013   YZ=           1176.8481

 Normal termination of Gaussian 16 at Wed May 25 19:10:17 2022.
