 Gaussian 16, Revision C.01,
 Gaussian 16:  ES64L-G16RevC.01  3-Jul-2019

 ----------------------------------------------------------------------
 # B3LYP/6-31G* empiricaldispersion=gd3 guess=read geom=check nosymm in
 tegral(ultrafinegrid)
 ----------------------------------------------------------------------

 ------------------------------------------------------
 Candidate Structure: Conf:535 Charge calc in gas phase
 ------------------------------------------------------
 Structure from the checkpoint file:  "conf-535.chk"
 Charge =  1 Multiplicity = 1

                          Input orientation:
 ---------------------------------------------------------------------
 Center     Atomic      Atomic             Coordinates (Angstroms)
 Number     Number       Type             X           Y           Z
 ---------------------------------------------------------------------
      1          7           0      -10.176653   17.635511   12.943020
      2          6           0      -10.244231   17.607901   11.430511
      3          6           0       -9.337873   16.409283   11.057719
      4          8           0       -9.031763   15.631673   11.964574
      5          6           0       -9.821000   18.990737   10.891316
      6          6           0      -10.532577   20.117730   11.613515
      7          6           0       -9.884201   20.820878   12.639515
      8          6           0      -11.865596   20.426531   11.307175
      9          6           0      -10.559159   21.822720   13.341129
     10          6           0      -12.538346   21.426946   12.009468
     11          6           0      -11.885510   22.126145   13.028232
     12          1           0       -9.213790   17.946000   13.237683
     13          1           0      -11.287370   17.400403   11.168293
     14          1           0       -8.737520   19.092415   11.006158
     15          1           0      -10.052534   19.021802    9.824408
     16          1           0       -8.850501   20.585689   12.881762
     17          1           0      -12.374247   19.894977   10.504963
     18          1           0      -10.045965   22.368717   14.127281
     19          1           0      -13.567109   21.665940   11.756810
     20          1           0      -12.407899   22.907791   13.571516
     21          1           0      -10.284467   16.678101   13.301317
     22          1           0      -10.870761   18.280218   13.332380
     23          7           0       -8.808070   16.294737    9.818768
     24          6           0       -7.693258   15.323245    9.645873
     25          6           0       -6.575150   15.678822   10.642525
     26          8           0       -6.062832   14.854717   11.390071
     27          6           0       -7.346022   15.458726    8.151376
     28          6           0       -8.684494   15.865797    7.512292
     29          6           0       -9.265757   16.857230    8.530150
     30          1           0       -8.024991   14.315947    9.908382
     31          1           0       -6.597192   16.245783    8.003065
     32          1           0       -6.937219   14.529603    7.749460
     33          1           0       -8.569205   16.313415    6.522156
     34          1           0       -9.343121   14.995521    7.420584
     35          1           0      -10.356920   16.922485    8.500163
     36          1           0       -8.850981   17.860657    8.372305
     37          7           0       -6.243531   17.009795   10.681930
     38          6           0       -5.600455   17.577613   11.873566
     39          6           0       -6.679681   17.495408   12.967838
     40          8           0       -7.514670   18.384316   13.125599
     41          6           0       -5.123388   19.006015   11.614403
     42          6           0       -4.499426   19.684020   12.844122
     43          6           0       -3.294050   18.945788   13.441273
     44          6           0       -2.613249   19.729168   14.583012
     45          7           0       -3.422435   19.998871   15.769876
     46          8           0       -6.757037   16.374071   13.667466
     47          1           0       -6.236273   15.661265   13.230249
     48          1           0       -6.820874   17.650800   10.151836
     49          1           0       -4.761473   16.928983   12.132083
     50          1           0       -5.976092   19.604656   11.266649
     51          1           0       -4.396695   18.962392   10.794486
     52          1           0       -4.189250   20.694077   12.546385
     53          1           0       -5.273341   19.814658   13.610876
     54          1           0       -2.555645   18.747287   12.650659
     55          1           0       -3.603854   17.964765   13.833491
     56          1           0       -1.720912   19.179665   14.905215
     57          1           0       -2.258227   20.693150   14.195395
     58          1           0       -4.228264   20.577395   15.543930
     59          1           0       -3.777925   19.131869   16.169337
 ---------------------------------------------------------------------

 SCF Done:  E(RB3LYP) =  -1300.60331307     A.U. after    2 cycles

 Alpha  occ. eigenvalues --  -19.31795 -19.27858 -19.26714 -19.24925 -14.58257
 Alpha  occ. eigenvalues --  -14.51154 -14.49379 -14.38208 -10.45509 -10.44049
 Alpha  occ. eigenvalues --  -10.41938 -10.40941 -10.36482 -10.36246 -10.36179
 Alpha  occ. eigenvalues --  -10.34099 -10.31979 -10.31841 -10.31756 -10.30636
 Alpha  occ. eigenvalues --  -10.30376 -10.30285 -10.30064 -10.30000 -10.29786
 Alpha  occ. eigenvalues --  -10.28107 -10.27893 -10.26701  -1.23464  -1.19544
 Alpha  occ. eigenvalues --   -1.16722  -1.14996  -1.12929  -1.08786  -1.05625
 Alpha  occ. eigenvalues --   -0.97549  -0.95138  -0.94168  -0.91889  -0.91608
 Alpha  occ. eigenvalues --   -0.88545  -0.86379  -0.85664  -0.84456  -0.80235
 Alpha  occ. eigenvalues --   -0.79026  -0.78067  -0.74976  -0.73783  -0.73136
 Alpha  occ. eigenvalues --   -0.72306  -0.72125  -0.71547  -0.70988  -0.69897
 Alpha  occ. eigenvalues --   -0.69203  -0.67673  -0.66429  -0.63935  -0.63174
 Alpha  occ. eigenvalues --   -0.62965  -0.62553  -0.61601  -0.60368  -0.59324
 Alpha  occ. eigenvalues --   -0.58169  -0.57594  -0.57192  -0.56703  -0.56510
 Alpha  occ. eigenvalues --   -0.56023  -0.55533  -0.55060  -0.54544  -0.53892
 Alpha  occ. eigenvalues --   -0.53401  -0.53131  -0.52705  -0.52295  -0.51878
 Alpha  occ. eigenvalues --   -0.51378  -0.51000  -0.50330  -0.49682  -0.49390
 Alpha  occ. eigenvalues --   -0.48505  -0.47985  -0.47263  -0.47237  -0.46814
 Alpha  occ. eigenvalues --   -0.45615  -0.45247  -0.45048  -0.44518  -0.44182
 Alpha  occ. eigenvalues --   -0.42500  -0.42014  -0.40985  -0.40745  -0.40051
 Alpha  occ. eigenvalues --   -0.37954  -0.37685  -0.36374  -0.36066  -0.30098
 Alpha virt. eigenvalues --   -0.14443  -0.13720  -0.11940  -0.11632  -0.11197
 Alpha virt. eigenvalues --   -0.07359  -0.06969  -0.04750  -0.02972  -0.02771
 Alpha virt. eigenvalues --   -0.01963  -0.01275  -0.00666   0.00051   0.00196

 Mulliken charges:
               1
     1  N   -0.755394
     2  C   -0.114949
     3  C    0.624048
     4  O   -0.515668
     5  C   -0.385022
     6  C    0.115753
     7  C   -0.216931
     8  C   -0.187219
     9  C   -0.126715
    10  C   -0.125994
    11  C   -0.123858
    12  H    0.447943
    13  H    0.218632
    14  H    0.182221
    15  H    0.189195
    16  H    0.169265
    17  H    0.137353
    18  H    0.163639
    19  H    0.164713
    20  H    0.167020
    21  H    0.420607
    22  H    0.408792
    23  N   -0.485555
    24  C   -0.022779
    25  C    0.616799
    26  O   -0.515936
    27  C   -0.321044
    28  C   -0.299733
    29  C   -0.149763
    30  H    0.213519
    31  H    0.170127
    32  H    0.202053
    33  H    0.187544
    34  H    0.183303
    35  H    0.180610
    36  H    0.170523
    37  N   -0.593857
    38  C   -0.060889
    39  C    0.643435
    40  O   -0.526162
    41  C   -0.286696
    42  C   -0.279836
    43  C   -0.271797
    44  C   -0.147646
    45  N   -0.699128
    46  O   -0.548518
    47  H    0.462549
    48  H    0.337598
    49  H    0.202475
    50  H    0.142827
    51  H    0.172019
    52  H    0.157417
    53  H    0.141848
    54  H    0.142217
    55  H    0.120700
    56  H    0.159539
    57  H    0.152325
    58  H    0.297220
    59  H    0.295259
 Sum of Mulliken charges =   1.00000

 Dipole moment (field-independent basis, Debye):
    X=            -45.2217    Y=             86.8687    Z=             51.9209  Tot=            110.8465
 Quadrupole moment (field-independent basis, Debye-Ang):
   XX=            291.9270   YY=           1416.4841   ZZ=            418.2063
   XY=           -825.3641   XZ=           -502.9046   YZ=            951.4062

 Normal termination of Gaussian 16 at Wed May 25 19:10:14 2022.
