 Gaussian 16, Revision C.01,
 Gaussian 16:  ES64L-G16RevC.01  3-Jul-2019

 ----------------------------------------------------------------------
 # B3LYP/6-31G* empiricaldispersion=gd3 guess=read geom=check nosymm in
 tegral(ultrafinegrid)
 ----------------------------------------------------------------------

 ------------------------------------------------------
 Candidate Structure: Conf:950 Charge calc in gas phase
 ------------------------------------------------------
 Structure from the checkpoint file:  "conf-950.chk"
 Charge =  1 Multiplicity = 1

                          Input orientation:
 ---------------------------------------------------------------------
 Center     Atomic      Atomic             Coordinates (Angstroms)
 Number     Number       Type             X           Y           Z
 ---------------------------------------------------------------------
      1          7           0       34.645131  -30.033408   40.052709
      2          6           0       33.256691  -30.505442   40.239349
      3          6           0       33.313920  -31.563974   41.356057
      4          8           0       34.264216  -32.339879   41.431648
      5          6           0       32.331472  -29.300424   40.515190
      6          6           0       32.394064  -28.265088   39.413593
      7          6           0       33.191518  -27.122079   39.541084
      8          6           0       31.691238  -28.452320   38.212922
      9          6           0       33.287834  -26.189816   38.507541
     10          6           0       31.776219  -27.533271   37.174389
     11          6           0       32.578397  -26.392793   37.318454
     12          8           0       32.619492  -25.528766   36.267816
     13          1           0       32.890385  -31.025822   39.339804
     14          1           0       31.298454  -29.662285   40.607965
     15          1           0       32.617262  -28.851981   41.473932
     16          1           0       33.744838  -26.952106   40.461802
     17          1           0       31.059439  -29.329918   38.091018
     18          1           0       33.908004  -25.304171   38.628245
     19          1           0       31.227520  -27.672348   36.248757
     20          1           0       33.187554  -24.772821   36.484396
     21          1           0       35.258501  -30.834051   39.900432
     22          1           0       34.696953  -29.418537   39.242448
     23          7           0       32.311740  -31.589902   42.282401
     24          6           0       32.339886  -32.565031   43.370982
     25          6           0       33.663614  -32.464229   44.147067
     26          8           0       34.172572  -33.488773   44.636659
     27          6           0       31.090250  -32.417401   44.278355
     28          6           0       31.009199  -31.051727   44.979032
     29          6           0       31.017630  -33.564299   45.295675
     30          1           0       31.508666  -30.985988   42.185867
     31          1           0       32.356071  -33.576248   42.950990
     32          1           0       30.228119  -32.511941   43.602147
     33          1           0       30.069852  -30.971172   45.534441
     34          1           0       31.831455  -30.925445   45.692296
     35          1           0       31.045311  -30.209173   44.277751
     36          1           0       31.857703  -33.526728   45.997174
     37          1           0       31.040167  -34.541229   44.801716
     38          1           0       30.090309  -33.495339   45.872808
     39          7           0       34.194250  -31.231299   44.294432
     40          6           0       35.644744  -30.996364   44.325727
     41          6           0       36.051333  -30.318064   43.004398
     42          8           0       37.097924  -30.568087   42.451984
     43          6           0       36.092491  -30.181885   45.551064
     44          6           0       35.815597  -30.844184   46.911103
     45          6           0       36.678870  -32.071301   47.245670
     46          7           0       36.293726  -33.233836   46.433029
     47          6           0       37.118833  -34.115631   45.873007
     48          7           0       38.372069  -34.289103   46.332784
     49          7           0       36.694444  -34.823190   44.815239
     50          8           0       35.113486  -29.471317   42.562178
     51          1           0       35.116851  -29.465363   41.525905
     52          1           0       33.704400  -30.493285   43.798145
     53          1           0       36.140527  -31.964809   44.305961
     54          1           0       35.581737  -29.211967   45.523121
     55          1           0       37.165078  -29.975649   45.444511
     56          1           0       34.753622  -31.113880   46.986413
     57          1           0       35.997819  -30.106221   47.700408
     58          1           0       36.570497  -32.319621   48.308152
     59          1           0       37.734609  -31.842223   47.057432
     60          1           0       35.348434  -33.242564   46.028488
     61          1           0       39.055301  -34.809519   45.802473
     62          1           0       38.653313  -33.927962   47.231495
     63          1           0       37.149202  -35.683353   44.546352
     64          1           0       35.779896  -34.605534   44.419727
 ---------------------------------------------------------------------

 SCF Done:  E(RB3LYP) =  -1486.59695986     A.U. after    1 cycles

 Alpha  occ. eigenvalues --  -19.25537 -19.24721 -19.24486 -19.22257 -19.21745
 Alpha  occ. eigenvalues --  -14.51498 -14.49975 -14.49870 -14.47291 -14.46949
 Alpha  occ. eigenvalues --  -14.43642 -10.47026 -10.40941 -10.40028 -10.39396
 Alpha  occ. eigenvalues --  -10.35545 -10.34092 -10.33836 -10.33176 -10.32319
 Alpha  occ. eigenvalues --  -10.30753 -10.30430 -10.29979 -10.29048 -10.27648
 Alpha  occ. eigenvalues --  -10.27166 -10.26941 -10.26790 -10.26758 -10.26405
 Alpha  occ. eigenvalues --  -10.25845  -1.17329  -1.15978  -1.15313  -1.14246
 Alpha  occ. eigenvalues --   -1.12899  -1.08918  -1.04864  -1.04650  -1.03656
 Alpha  occ. eigenvalues --   -1.02796  -1.00069  -0.92985  -0.91726  -0.90821
 Alpha  occ. eigenvalues --   -0.86756  -0.86316  -0.82526  -0.82285  -0.80362
 Alpha  occ. eigenvalues --   -0.79177  -0.78057  -0.77293  -0.74254  -0.73158
 Alpha  occ. eigenvalues --   -0.72006  -0.71011  -0.69755  -0.69682  -0.68994
 Alpha  occ. eigenvalues --   -0.68655  -0.66844  -0.66252  -0.64462  -0.64254
 Alpha  occ. eigenvalues --   -0.63723  -0.62088  -0.61769  -0.61000  -0.60415
 Alpha  occ. eigenvalues --   -0.59574  -0.58487  -0.58078  -0.56569  -0.56257
 Alpha  occ. eigenvalues --   -0.55771  -0.55551  -0.54897  -0.54407  -0.54272
 Alpha  occ. eigenvalues --   -0.53852  -0.52990  -0.52723  -0.51583  -0.51205
 Alpha  occ. eigenvalues --   -0.50886  -0.50051  -0.50003  -0.49669  -0.49314
 Alpha  occ. eigenvalues --   -0.48615  -0.48473  -0.48330  -0.47572  -0.47235
 Alpha  occ. eigenvalues --   -0.46705  -0.46199  -0.45858  -0.45023  -0.44295
 Alpha  occ. eigenvalues --   -0.44156  -0.43962  -0.43628  -0.43245  -0.42063
 Alpha  occ. eigenvalues --   -0.41092  -0.40391  -0.39840  -0.39321  -0.38893
 Alpha  occ. eigenvalues --   -0.38455  -0.37214  -0.36104  -0.35677  -0.34101
 Alpha  occ. eigenvalues --   -0.32767  -0.29215
 Alpha virt. eigenvalues --   -0.11223  -0.10968  -0.09048  -0.07900  -0.07092
 Alpha virt. eigenvalues --   -0.06722  -0.06570  -0.03498  -0.03221  -0.01811
 Alpha virt. eigenvalues --   -0.01293  -0.00075   0.00381   0.00476   0.00983

 Mulliken charges:
               1
     1  N   -0.786858
     2  C   -0.061552
     3  C    0.638687
     4  O   -0.530683
     5  C   -0.384000
     6  C    0.140804
     7  C   -0.196799
     8  C   -0.186866
     9  C   -0.191065
    10  C   -0.154785
    11  C    0.356031
    12  O   -0.628951
    13  H    0.181264
    14  H    0.149481
    15  H    0.165122
    16  H    0.140532
    17  H    0.132057
    18  H    0.137182
    19  H    0.159822
    20  H    0.416317
    21  H    0.361402
    22  H    0.350603
    23  N   -0.663680
    24  C    0.005824
    25  C    0.635178
    26  O   -0.590356
    27  C   -0.130283
    28  C   -0.467967
    29  C   -0.447823
    30  H    0.351674
    31  H    0.194290
    32  H    0.156183
    33  H    0.177764
    34  H    0.156673
    35  H    0.139999
    36  H    0.153692
    37  H    0.162110
    38  H    0.166743
    39  N   -0.574296
    40  C   -0.070830
    41  C    0.609434
    42  O   -0.459887
    43  C   -0.271928
    44  C   -0.308723
    45  C   -0.149927
    46  N   -0.612322
    47  C    0.793128
    48  N   -0.760919
    49  N   -0.775602
    50  O   -0.641707
    51  H    0.465530
    52  H    0.366375
    53  H    0.172815
    54  H    0.172516
    55  H    0.171025
    56  H    0.169294
    57  H    0.180306
    58  H    0.187399
    59  H    0.170783
    60  H    0.402216
    61  H    0.381122
    62  H    0.384016
    63  H    0.369103
    64  H    0.423315
 Sum of Mulliken charges =   1.00000

 Dipole moment (field-independent basis, Debye):
    X=            169.0105    Y=           -154.2746    Z=            213.8748  Tot=            313.2214
 Quadrupole moment (field-independent basis, Debye-Ang):
   XX=           5812.6729   YY=           4825.1545   ZZ=           9392.4953
   XY=          -5452.8403   XZ=           7556.9894   YZ=          -6901.3586

 Normal termination of Gaussian 16 at Tue May 31 11:31:54 2022.
