 Gaussian 16, Revision C.01,
 Gaussian 16:  ES64L-G16RevC.01  3-Jul-2019

 ----------------------------------------------------------------------
 # B3LYP/6-31G* empiricaldispersion=gd3 guess=read geom=check nosymm in
 tegral(ultrafinegrid)
 ----------------------------------------------------------------------

 ------------------------------------------------------
 Candidate Structure: Conf:746 Charge calc in gas phase
 ------------------------------------------------------
 Structure from the checkpoint file:  "conf-746.chk"
 Charge =  1 Multiplicity = 1

                          Input orientation:
 ---------------------------------------------------------------------
 Center     Atomic      Atomic             Coordinates (Angstroms)
 Number     Number       Type             X           Y           Z
 ---------------------------------------------------------------------
      1          7           0       31.739618  -29.354662   41.936501
      2          6           0       33.027942  -29.220402   42.618320
      3          6           0       34.066505  -30.101998   41.928299
      4          8           0       35.081551  -30.502428   42.525311
      5          6           0       33.524555  -27.751081   42.580510
      6          6           0       32.597871  -26.812066   43.317718
      7          6           0       31.672570  -26.014782   42.627060
      8          6           0       32.605423  -26.747815   44.716738
      9          6           0       30.784462  -25.181988   43.302038
     10          6           0       31.725001  -25.918654   45.407907
     11          6           0       30.807506  -25.130927   44.700123
     12          8           0       29.917967  -24.297116   45.307772
     13          1           0       33.009382  -29.546435   43.668500
     14          1           0       34.529811  -27.730388   43.016813
     15          1           0       33.617388  -27.446961   41.530983
     16          1           0       31.653624  -26.037996   41.539637
     17          1           0       33.315098  -27.351620   45.278675
     18          1           0       30.074000  -24.560537   42.766958
     19          1           0       31.751727  -25.877264   46.494971
     20          1           0       30.036844  -24.334855   46.269628
     21          1           0       31.278479  -30.208028   42.248687
     22          1           0       31.134955  -28.573970   42.186000
     23          7           0       33.790620  -30.397725   40.642090
     24          6           0       34.629756  -31.270065   39.831505
     25          6           0       35.019646  -32.495893   40.675849
     26          8           0       36.196847  -32.864367   40.714340
     27          6           0       33.960121  -31.600466   38.473887
     28          6           0       32.607736  -32.319190   38.603001
     29          6           0       34.926853  -32.399514   37.588853
     30          1           0       32.890347  -30.046145   40.316780
     31          1           0       35.586695  -30.776158   39.632509
     32          1           0       33.785005  -30.625302   37.997778
     33          1           0       31.899217  -31.783650   39.246339
     34          1           0       32.142624  -32.410053   37.616670
     35          1           0       32.733340  -33.332511   39.000846
     36          1           0       35.141130  -33.382897   38.023425
     37          1           0       35.880380  -31.877049   37.457842
     38          1           0       34.488119  -32.559718   36.599247
     39          7           0       34.008784  -33.090061   41.372184
     40          6           0       34.165014  -33.561214   42.745751
     41          6           0       32.928293  -33.043148   43.513066
     42          8           0       32.057032  -32.388263   42.987506
     43          6           0       34.370690  -35.086548   42.886329
     44          6           0       35.730425  -35.627905   42.408094
     45          6           0       36.953212  -35.204754   43.245418
     46          7           0       37.282917  -33.795302   42.995349
     47          6           0       37.681282  -32.891555   43.883307
     48          7           0       38.265816  -33.284949   45.039058
     49          7           0       37.463762  -31.591687   43.646641
     50          8           0       32.876015  -33.310539   44.827331
     51          1           0       33.640311  -33.835770   45.116299
     52          1           0       33.104159  -32.637650   41.259366
     53          1           0       35.004171  -33.026453   43.200937
     54          1           0       33.571984  -35.583812   42.325244
     55          1           0       34.235003  -35.381413   43.937128
     56          1           0       35.896259  -35.350326   41.361588
     57          1           0       35.684474  -36.722199   42.438282
     58          1           0       37.809332  -35.836253   42.979396
     59          1           0       36.757982  -35.342733   44.316334
     60          1           0       36.980466  -33.435931   42.073516
     61          1           0       38.499321  -32.605126   45.748844
     62          1           0       38.777677  -34.155800   45.065967
     63          1           0       37.933734  -30.882799   44.191067
     64          1           0       36.734074  -31.271096   42.999532
 ---------------------------------------------------------------------

 SCF Done:  E(RB3LYP) =  -1486.58381253     A.U. after    1 cycles

 Alpha  occ. eigenvalues --  -19.31975 -19.26228 -19.24563 -19.24263 -19.22808
 Alpha  occ. eigenvalues --  -14.51902 -14.50157 -14.49706 -14.47049 -14.46134
 Alpha  occ. eigenvalues --  -14.40762 -10.47269 -10.44545 -10.41032 -10.38882
 Alpha  occ. eigenvalues --  -10.36683 -10.36075 -10.33680 -10.32134 -10.31763
 Alpha  occ. eigenvalues --  -10.31395 -10.31326 -10.29816 -10.27617 -10.26920
 Alpha  occ. eigenvalues --  -10.26409 -10.26352 -10.26305 -10.26111 -10.25978
 Alpha  occ. eigenvalues --  -10.25242  -1.22740  -1.16376  -1.15569  -1.14515
 Alpha  occ. eigenvalues --   -1.13844  -1.12409  -1.05072  -1.04971  -1.03854
 Alpha  occ. eigenvalues --   -1.03001  -0.97996  -0.92672  -0.92252  -0.90367
 Alpha  occ. eigenvalues --   -0.87572  -0.85216  -0.82440  -0.81735  -0.81139
 Alpha  occ. eigenvalues --   -0.78930  -0.77667  -0.77490  -0.74619  -0.74049
 Alpha  occ. eigenvalues --   -0.72814  -0.71965  -0.70481  -0.69372  -0.69236
 Alpha  occ. eigenvalues --   -0.69192  -0.66729  -0.66100  -0.65357  -0.65145
 Alpha  occ. eigenvalues --   -0.64170  -0.62476  -0.61696  -0.61210  -0.60314
 Alpha  occ. eigenvalues --   -0.59359  -0.58708  -0.58375  -0.57409  -0.57119
 Alpha  occ. eigenvalues --   -0.56033  -0.55950  -0.55315  -0.54660  -0.54247
 Alpha  occ. eigenvalues --   -0.53952  -0.53521  -0.52962  -0.52525  -0.51474
 Alpha  occ. eigenvalues --   -0.51071  -0.50646  -0.50293  -0.50062  -0.49331
 Alpha  occ. eigenvalues --   -0.49078  -0.48358  -0.47882  -0.47463  -0.47276
 Alpha  occ. eigenvalues --   -0.47093  -0.46881  -0.46486  -0.45281  -0.44008
 Alpha  occ. eigenvalues --   -0.43751  -0.43556  -0.43488  -0.42951  -0.42704
 Alpha  occ. eigenvalues --   -0.42483  -0.40522  -0.40378  -0.39639  -0.39309
 Alpha  occ. eigenvalues --   -0.38532  -0.37637  -0.36689  -0.36124  -0.33712
 Alpha  occ. eigenvalues --   -0.32177  -0.28606
 Alpha virt. eigenvalues --   -0.12079  -0.11562  -0.11164  -0.08610  -0.07460
 Alpha virt. eigenvalues --   -0.07307  -0.06812  -0.05591  -0.03813  -0.01506
 Alpha virt. eigenvalues --   -0.01105  -0.00846   0.00768   0.00830   0.01101

 Mulliken charges:
               1
     1  N   -0.782424
     2  C   -0.040324
     3  C    0.628508
     4  O   -0.602814
     5  C   -0.367523
     6  C    0.155968
     7  C   -0.203658
     8  C   -0.184000
     9  C   -0.155041
    10  C   -0.188690
    11  C    0.354536
    12  O   -0.630961
    13  H    0.152424
    14  H    0.162830
    15  H    0.158534
    16  H    0.138625
    17  H    0.123750
    18  H    0.157177
    19  H    0.131138
    20  H    0.414333
    21  H    0.341780
    22  H    0.332636
    23  N   -0.624354
    24  C   -0.002323
    25  C    0.607695
    26  O   -0.560052
    27  C   -0.121691
    28  C   -0.480654
    29  C   -0.452799
    30  H    0.377323
    31  H    0.188034
    32  H    0.160333
    33  H    0.154360
    34  H    0.178027
    35  H    0.158483
    36  H    0.156742
    37  H    0.162346
    38  H    0.169321
    39  N   -0.590028
    40  C   -0.086933
    41  C    0.629644
    42  O   -0.457704
    43  C   -0.272654
    44  C   -0.308878
    45  C   -0.152871
    46  N   -0.619719
    47  C    0.756303
    48  N   -0.754675
    49  N   -0.780513
    50  O   -0.543280
    51  H    0.422877
    52  H    0.375762
    53  H    0.176404
    54  H    0.190350
    55  H    0.131342
    56  H    0.195872
    57  H    0.180738
    58  H    0.190738
    59  H    0.162245
    60  H    0.434396
    61  H    0.373502
    62  H    0.380968
    63  H    0.364249
    64  H    0.434266
 Sum of Mulliken charges =   1.00000

 Dipole moment (field-independent basis, Debye):
    X=            172.8037    Y=           -156.3413    Z=            209.6521  Tot=            313.4609
 Quadrupole moment (field-independent basis, Debye-Ang):
   XX=           6062.9904   YY=           4947.9491   ZZ=           9011.2438
   XY=          -5642.2094   XZ=           7559.1688   YZ=          -6818.5969

 Normal termination of Gaussian 16 at Tue May 31 11:31:54 2022.
