 Gaussian 16, Revision C.01,
 Gaussian 16:  ES64L-G16RevC.01  3-Jul-2019

 ----------------------------------------------------------------------
 # B3LYP/6-31G* empiricaldispersion=gd3 guess=read geom=check nosymm in
 tegral(ultrafinegrid)
 ----------------------------------------------------------------------

 ------------------------------------------------------
 Candidate Structure: Conf:102 Charge calc in gas phase
 ------------------------------------------------------
 Structure from the checkpoint file:  "conf-102.chk"
 Charge =  1 Multiplicity = 1

                          Input orientation:
 ---------------------------------------------------------------------
 Center     Atomic      Atomic             Coordinates (Angstroms)
 Number     Number       Type             X           Y           Z
 ---------------------------------------------------------------------
      1          7           0       36.171867  -29.567814   45.262750
      2          6           0       34.915839  -29.920001   44.605645
      3          6           0       34.752535  -29.222434   43.257102
      4          8           0       35.586170  -29.410376   42.354754
      5          6           0       34.842097  -31.456838   44.334288
      6          6           0       34.356512  -32.300562   45.494254
      7          6           0       34.953661  -32.254606   46.761645
      8          6           0       33.273130  -33.168071   45.291575
      9          6           0       34.468247  -33.050388   47.800415
     10          6           0       32.786423  -33.967547   46.319261
     11          6           0       33.383703  -33.909357   47.584938
     12          8           0       32.863428  -34.711321   48.556126
     13          1           0       34.094596  -29.644232   45.274833
     14          1           0       34.179318  -31.644914   43.478406
     15          1           0       35.846499  -31.772614   44.012003
     16          1           0       35.794755  -31.586780   46.933675
     17          1           0       32.816300  -33.230443   44.307158
     18          1           0       34.939153  -33.007444   48.781014
     19          1           0       31.950423  -34.641823   46.164481
     20          1           0       33.364184  -34.595490   49.379322
     21          1           0       36.944469  -29.682107   44.606635
     22          1           0       36.170220  -28.592117   45.559141
     23          7           0       33.648477  -28.465135   43.025293
     24          6           0       33.385485  -27.894562   41.698982
     25          6           0       33.305856  -29.041662   40.670638
     26          8           0       33.821598  -28.935496   39.564897
     27          6           0       32.145359  -26.964904   41.712847
     28          6           0       30.839634  -27.681194   42.094552
     29          6           0       32.005460  -26.248375   40.362181
     30          1           0       33.043552  -28.225702   43.799501
     31          1           0       34.255743  -27.312353   41.383339
     32          1           0       32.360965  -26.207481   42.480855
     33          1           0       30.899147  -28.212936   43.053058
     34          1           0       30.029709  -26.951353   42.186044
     35          1           0       30.549347  -28.404289   41.324055
     36          1           0       31.175471  -25.536286   40.400163
     37          1           0       31.803946  -26.959494   39.553292
     38          1           0       32.915022  -25.696478   40.103054
     39          7           0       32.617496  -30.164120   41.088803
     40          6           0       33.062455  -31.500021   40.665135
     41          6           0       32.298672  -32.550044   41.472291
     42          8           0       32.832958  -33.557740   41.888971
     43          6           0       32.939828  -31.785555   39.150494
     44          6           0       33.629960  -33.096817   38.723565
     45          6           0       35.079684  -33.237732   39.228310
     46          7           0       35.856089  -32.010082   39.011358
     47          6           0       36.278873  -31.172384   39.963170
     48          7           0       36.569106  -31.603546   41.196646
     49          7           0       36.451529  -29.872019   39.661646
     50          8           0       30.994874  -32.306867   41.699140
     51          1           0       30.719942  -31.481372   41.254986
     52          1           0       32.400969  -30.131149   42.081014
     53          1           0       34.102861  -31.606503   40.975559
     54          1           0       33.375150  -30.935686   38.622602
     55          1           0       31.880572  -31.817380   38.868820
     56          1           0       33.610591  -33.155322   37.628731
     57          1           0       33.078992  -33.970950   39.089532
     58          1           0       35.585899  -34.070981   38.732010
     59          1           0       35.065810  -33.455599   40.295670
     60          1           0       35.859890  -31.638709   38.069385
     61          1           0       36.432279  -30.949546   41.965753
     62          1           0       36.631314  -32.593744   41.405669
     63          1           0       36.743179  -29.277908   40.429799
     64          1           0       35.706074  -29.442119   39.122592
 ---------------------------------------------------------------------

 SCF Done:  E(RB3LYP) =  -1486.56501993     A.U. after    1 cycles

 Alpha  occ. eigenvalues --  -19.31748 -19.26550 -19.26182 -19.25696 -19.24347
 Alpha  occ. eigenvalues --  -14.51891 -14.50719 -14.50397 -14.49888 -14.49477
 Alpha  occ. eigenvalues --  -14.43209 -10.47108 -10.44124 -10.42898 -10.42504
 Alpha  occ. eigenvalues --  -10.37007 -10.36357 -10.36071 -10.34437 -10.32217
 Alpha  occ. eigenvalues --  -10.31804 -10.31743 -10.31582 -10.30070 -10.29381
 Alpha  occ. eigenvalues --  -10.28077 -10.26756 -10.26105 -10.26039 -10.25853
 Alpha  occ. eigenvalues --  -10.25221  -1.22296  -1.18548  -1.17469  -1.15992
 Alpha  occ. eigenvalues --   -1.13793  -1.12451  -1.07580  -1.05731  -1.05637
 Alpha  occ. eigenvalues --   -1.03460  -1.00508  -0.93615  -0.92576  -0.92468
 Alpha  occ. eigenvalues --   -0.87903  -0.86926  -0.84129  -0.81727  -0.81630
 Alpha  occ. eigenvalues --   -0.80336  -0.79374  -0.77826  -0.75237  -0.74528
 Alpha  occ. eigenvalues --   -0.73376  -0.73021  -0.72570  -0.70408  -0.69627
 Alpha  occ. eigenvalues --   -0.69301  -0.68058  -0.67286  -0.66438  -0.66147
 Alpha  occ. eigenvalues --   -0.64233  -0.64106  -0.63135  -0.62309  -0.61208
 Alpha  occ. eigenvalues --   -0.60698  -0.59742  -0.59635  -0.59037  -0.58289
 Alpha  occ. eigenvalues --   -0.57185  -0.56906  -0.55693  -0.55601  -0.55486
 Alpha  occ. eigenvalues --   -0.55036  -0.54487  -0.54119  -0.53901  -0.53709
 Alpha  occ. eigenvalues --   -0.53134  -0.51882  -0.51572  -0.50697  -0.49951
 Alpha  occ. eigenvalues --   -0.49824  -0.49166  -0.49028  -0.48390  -0.48313
 Alpha  occ. eigenvalues --   -0.47968  -0.47521  -0.47017  -0.46789  -0.45845
 Alpha  occ. eigenvalues --   -0.45777  -0.45100  -0.44668  -0.43745  -0.42794
 Alpha  occ. eigenvalues --   -0.42462  -0.41811  -0.41106  -0.40517  -0.40356
 Alpha  occ. eigenvalues --   -0.39998  -0.39669  -0.39540  -0.37763  -0.35040
 Alpha  occ. eigenvalues --   -0.32105  -0.28725
 Alpha virt. eigenvalues --   -0.14069  -0.12863  -0.12200  -0.11310  -0.07480
 Alpha virt. eigenvalues --   -0.07073  -0.06128  -0.05643  -0.04797  -0.04581
 Alpha virt. eigenvalues --   -0.02505  -0.01909  -0.01335  -0.00468  -0.00169

 Mulliken charges:
               1
     1  N   -0.683375
     2  C   -0.070969
     3  C    0.626232
     4  O   -0.588666
     5  C   -0.365884
     6  C    0.148990
     7  C   -0.186072
     8  C   -0.211838
     9  C   -0.195970
    10  C   -0.163733
    11  C    0.358469
    12  O   -0.632315
    13  H    0.158304
    14  H    0.137885
    15  H    0.141615
    16  H    0.163262
    17  H    0.151617
    18  H    0.132917
    19  H    0.154753
    20  H    0.414702
    21  H    0.310128
    22  H    0.318552
    23  N   -0.647680
    24  C   -0.010136
    25  C    0.623285
    26  O   -0.532270
    27  C   -0.127209
    28  C   -0.472648
    29  C   -0.454283
    30  H    0.356140
    31  H    0.191970
    32  H    0.161760
    33  H    0.135177
    34  H    0.188882
    35  H    0.157645
    36  H    0.174867
    37  H    0.167515
    38  H    0.164999
    39  N   -0.641397
    40  C   -0.062466
    41  C    0.614955
    42  O   -0.453942
    43  C   -0.291058
    44  C   -0.298435
    45  C   -0.183577
    46  N   -0.567353
    47  C    0.715434
    48  N   -0.753901
    49  N   -0.724724
    50  O   -0.550658
    51  H    0.431495
    52  H    0.346562
    53  H    0.175533
    54  H    0.189358
    55  H    0.169286
    56  H    0.173497
    57  H    0.196075
    58  H    0.201942
    59  H    0.189747
    60  H    0.365346
    61  H    0.415906
    62  H    0.375752
    63  H    0.378353
    64  H    0.391648
 Sum of Mulliken charges =   1.00000

 Dipole moment (field-independent basis, Debye):
    X=            165.4163    Y=           -143.6093    Z=            198.7179  Tot=            295.7616
 Quadrupole moment (field-independent basis, Debye-Ang):
   XX=           5535.2064   YY=           4132.0819   ZZ=           8089.8168
   XY=          -4963.6433   XZ=           6846.4160   YZ=          -5924.2159

 Normal termination of Gaussian 16 at Tue May 31 11:31:57 2022.
