 Gaussian 16, Revision C.01,
 Gaussian 16:  ES64L-G16RevC.01  3-Jul-2019

 ----------------------------------------------------------------------
 # B3LYP/6-31G* empiricaldispersion=gd3 guess=read geom=check nosymm in
 tegral(ultrafinegrid)
 ----------------------------------------------------------------------

 -----------------------------------------------------
 Candidate Structure: Conf:34 Charge calc in gas phase
 -----------------------------------------------------
 Structure from the checkpoint file:  "conf-34.chk"
 Charge =  1 Multiplicity = 1

                          Input orientation:
 ---------------------------------------------------------------------
 Center     Atomic      Atomic             Coordinates (Angstroms)
 Number     Number       Type             X           Y           Z
 ---------------------------------------------------------------------
      1          7           0       31.199482  -32.084614   41.290830
      2          6           0       32.300556  -32.264521   42.224007
      3          6           0       33.672542  -31.975336   41.607868
      4          8           0       33.846172  -30.994546   40.864197
      5          6           0       32.156017  -31.292795   43.430730
      6          6           0       31.055475  -31.656860   44.395526
      7          6           0       29.703704  -31.480935   44.072809
      8          6           0       31.371518  -32.197886   45.650401
      9          6           0       28.701000  -31.834812   44.972410
     10          6           0       30.381438  -32.554697   46.560318
     11          6           0       29.035593  -32.373501   46.221614
     12          8           0       28.106864  -32.736329   47.149245
     13          1           0       32.264759  -33.291672   42.606104
     14          1           0       33.109159  -31.278708   43.971247
     15          1           0       32.015079  -30.283155   43.020386
     16          1           0       29.435286  -31.079874   43.101435
     17          1           0       32.415218  -32.344674   45.925365
     18          1           0       27.655817  -31.690958   44.706055
     19          1           0       30.626186  -32.970542   47.532199
     20          1           0       27.215931  -32.569305   46.803793
     21          1           0       31.345710  -31.224734   40.763632
     22          1           0       31.166418  -32.844576   40.614357
     23          7           0       34.708906  -32.757245   41.999609
     24          6           0       36.088414  -32.524231   41.558954
     25          6           0       36.488756  -31.063470   41.829388
     26          8           0       37.056559  -30.394719   40.966019
     27          6           0       37.054491  -33.569910   42.171305
     28          6           0       37.115718  -33.531516   43.706697
     29          6           0       38.454850  -33.415700   41.561155
     30          1           0       34.507896  -33.597385   42.526779
     31          1           0       36.131500  -32.610371   40.468121
     32          1           0       36.656915  -34.549084   41.865963
     33          1           0       37.579134  -32.604255   44.060727
     34          1           0       36.127988  -33.619794   44.176911
     35          1           0       37.721838  -34.364510   44.075019
     36          1           0       39.117521  -34.201109   41.936866
     37          1           0       38.896974  -32.447937   41.822841
     38          1           0       38.428348  -33.487653   40.468730
     39          7           0       36.152643  -30.539532   43.044776
     40          6           0       35.851572  -29.110231   43.113893
     41          6           0       34.637849  -28.819540   43.975487
     42          8           0       33.839347  -27.950116   43.691316
     43          6           0       37.021138  -28.152800   43.472662
     44          6           0       37.614253  -27.452309   42.235224
     45          6           0       36.569125  -26.698019   41.364376
     46          7           0       36.215116  -27.428213   40.129188
     47          6           0       35.187791  -28.260757   39.919643
     48          7           0       34.011528  -28.141677   40.551180
     49          7           0       35.334625  -29.228351   38.985076
     50          8           0       34.556028  -29.589416   45.075025
     51          1           0       33.742620  -29.345484   45.560690
     52          1           0       35.666631  -31.138768   43.699355
     53          1           0       35.509246  -28.851192   42.123485
     54          1           0       37.796357  -28.719766   43.996305
     55          1           0       36.662272  -27.386559   44.170345
     56          1           0       38.126042  -28.192429   41.612709
     57          1           0       38.368000  -26.733976   42.574637
     58          1           0       36.960220  -25.729284   41.044138
     59          1           0       35.656756  -26.490337   41.930612
     60          1           0       36.987461  -27.561190   39.486302
     61          1           0       33.497118  -29.010028   40.699608
     62          1           0       33.866382  -27.427002   41.254045
     63          1           0       34.549580  -29.864506   38.899720
     64          1           0       36.216867  -29.730859   39.053307
 ---------------------------------------------------------------------

 SCF Done:  E(RB3LYP) =  -1486.57538334     A.U. after    3 cycles

 Alpha  occ. eigenvalues --  -19.32838 -19.26995 -19.25310 -19.24585 -19.24524
 Alpha  occ. eigenvalues --  -14.51361 -14.50212 -14.49396 -14.49121 -14.48318
 Alpha  occ. eigenvalues --  -14.41942 -10.46696 -10.45093 -10.41338 -10.41267
 Alpha  occ. eigenvalues --  -10.35999 -10.35936 -10.35393 -10.33421 -10.32087
 Alpha  occ. eigenvalues --  -10.31420 -10.31027 -10.30628 -10.29188 -10.28526
 Alpha  occ. eigenvalues --  -10.27541 -10.26863 -10.26796 -10.26263 -10.26037
 Alpha  occ. eigenvalues --  -10.25657  -1.23586  -1.16975  -1.15856  -1.15336
 Alpha  occ. eigenvalues --   -1.14608  -1.12733  -1.05974  -1.05105  -1.04551
 Alpha  occ. eigenvalues --   -1.02964  -0.99555  -0.92863  -0.92717  -0.91724
 Alpha  occ. eigenvalues --   -0.87492  -0.86622  -0.83427  -0.82013  -0.81823
 Alpha  occ. eigenvalues --   -0.79892  -0.78878  -0.76880  -0.75101  -0.74437
 Alpha  occ. eigenvalues --   -0.72574  -0.71903  -0.71631  -0.70297  -0.69472
 Alpha  occ. eigenvalues --   -0.68309  -0.68007  -0.66435  -0.65761  -0.64650
 Alpha  occ. eigenvalues --   -0.63387  -0.63047  -0.61878  -0.61482  -0.60989
 Alpha  occ. eigenvalues --   -0.60510  -0.59266  -0.58797  -0.58645  -0.58588
 Alpha  occ. eigenvalues --   -0.57346  -0.56570  -0.55366  -0.55299  -0.54662
 Alpha  occ. eigenvalues --   -0.54409  -0.54113  -0.54027  -0.53270  -0.52806
 Alpha  occ. eigenvalues --   -0.52687  -0.51897  -0.51617  -0.50571  -0.50280
 Alpha  occ. eigenvalues --   -0.49400  -0.49192  -0.48501  -0.48130  -0.47629
 Alpha  occ. eigenvalues --   -0.47400  -0.46527  -0.46398  -0.46115  -0.45252
 Alpha  occ. eigenvalues --   -0.45084  -0.44810  -0.44419  -0.44300  -0.43323
 Alpha  occ. eigenvalues --   -0.41932  -0.41160  -0.40883  -0.40245  -0.40136
 Alpha  occ. eigenvalues --   -0.39486  -0.39186  -0.37746  -0.37322  -0.34247
 Alpha  occ. eigenvalues --   -0.32369  -0.28950
 Alpha virt. eigenvalues --   -0.12815  -0.12575  -0.11233  -0.10473  -0.07635
 Alpha virt. eigenvalues --   -0.06479  -0.05737  -0.05087  -0.04206  -0.03234
 Alpha virt. eigenvalues --   -0.02073  -0.01118  -0.00935  -0.00271   0.00300

 Mulliken charges:
               1
     1  N   -0.684268
     2  C   -0.069582
     3  C    0.617150
     4  O   -0.588473
     5  C   -0.381924
     6  C    0.167766
     7  C   -0.161772
     8  C   -0.208094
     9  C   -0.194813
    10  C   -0.155946
    11  C    0.356608
    12  O   -0.631802
    13  H    0.155893
    14  H    0.132273
    15  H    0.153269
    16  H    0.147747
    17  H    0.111318
    18  H    0.134902
    19  H    0.152396
    20  H    0.415833
    21  H    0.303953
    22  H    0.317461
    23  N   -0.630786
    24  C   -0.007347
    25  C    0.620104
    26  O   -0.554409
    27  C   -0.129542
    28  C   -0.474405
    29  C   -0.453627
    30  H    0.351712
    31  H    0.180461
    32  H    0.156316
    33  H    0.166714
    34  H    0.135559
    35  H    0.184114
    36  H    0.172884
    37  H    0.165314
    38  H    0.161400
    39  N   -0.603671
    40  C   -0.012762
    41  C    0.580141
    42  O   -0.472810
    43  C   -0.288882
    44  C   -0.285864
    45  C   -0.194204
    46  N   -0.552864
    47  C    0.716980
    48  N   -0.734334
    49  N   -0.721471
    50  O   -0.559889
    51  H    0.441081
    52  H    0.361977
    53  H    0.176075
    54  H    0.186368
    55  H    0.175931
    56  H    0.187719
    57  H    0.175884
    58  H    0.202826
    59  H    0.185166
    60  H    0.366170
    61  H    0.396672
    62  H    0.384529
    63  H    0.371883
    64  H    0.382989
 Sum of Mulliken charges =   1.00000

 Dipole moment (field-independent basis, Debye):
    X=            168.4295    Y=           -145.2045    Z=            200.9966  Tot=            299.7540
 Quadrupole moment (field-independent basis, Debye-Ang):
   XX=           5767.4318   YY=           4248.9498   ZZ=           8248.9057
   XY=          -5080.6892   XZ=           7041.4880   YZ=          -6080.8257

 Normal termination of Gaussian 16 at Tue May 31 11:32:13 2022.
