 Gaussian 16, Revision C.01,
 Gaussian 16:  ES64L-G16RevC.01  3-Jul-2019

 ----------------------------------------------------------------------
 # B3LYP/6-31G* empiricaldispersion=gd3 guess=read geom=check nosymm in
 tegral(ultrafinegrid)
 ----------------------------------------------------------------------

 ------------------------------------------------------
 Candidate Structure: Conf:304 Charge calc in gas phase
 ------------------------------------------------------
 Structure from the checkpoint file:  "conf-304.chk"
 Charge =  1 Multiplicity = 1

                          Input orientation:
 ---------------------------------------------------------------------
 Center     Atomic      Atomic             Coordinates (Angstroms)
 Number     Number       Type             X           Y           Z
 ---------------------------------------------------------------------
      1          7           0       33.850838  -31.024071   39.812327
      2          6           0       33.729520  -29.612418   40.172874
      3          6           0       33.356272  -29.460981   41.664261
      4          8           0       32.464527  -30.182894   42.132734
      5          6           0       34.971978  -28.825534   39.702755
      6          6           0       35.125586  -28.803288   38.198123
      7          6           0       35.739138  -29.854289   37.509408
      8          6           0       34.622474  -27.728630   37.452187
      9          6           0       35.851488  -29.836978   36.120956
     10          6           0       34.722544  -27.696655   36.065107
     11          6           0       35.340752  -28.756185   35.392225
     12          8           0       35.417170  -28.672481   34.033025
     13          1           0       32.859546  -29.218346   39.630000
     14          1           0       34.894963  -27.786287   40.049384
     15          1           0       35.865709  -29.256854   40.177762
     16          1           0       36.126490  -30.704887   38.062105
     17          1           0       34.144060  -26.895618   37.963903
     18          1           0       36.334557  -30.662662   35.602156
     19          1           0       34.336325  -26.862745   35.488326
     20          1           0       35.861634  -29.460551   33.683838
     21          1           0       34.612711  -31.450158   40.340430
     22          1           0       32.998709  -31.510165   40.086055
     23          7           0       34.031859  -28.573217   42.439539
     24          6           0       33.558252  -28.147668   43.764262
     25          6           0       33.417280  -29.309068   44.751427
     26          8           0       32.646888  -29.246124   45.698433
     27          6           0       34.481191  -27.026510   44.313462
     28          6           0       35.905304  -27.527017   44.601301
     29          6           0       33.866066  -26.350997   45.546230
     30          1           0       34.700934  -27.966010   41.986081
     31          1           0       32.540789  -27.753060   43.664935
     32          1           0       34.533374  -26.272536   43.512714
     33          1           0       36.363121  -28.015060   43.732125
     34          1           0       36.548620  -26.688684   44.885739
     35          1           0       35.907615  -28.245560   45.428637
     36          1           0       33.769185  -27.054963   46.377472
     37          1           0       32.868304  -25.955892   45.328770
     38          1           0       34.499997  -25.518492   45.868192
     39          7           0       34.198279  -30.415891   44.540101
     40          6           0       33.972828  -31.598233   45.344647
     41          6           0       32.566431  -32.203751   45.153324
     42          8           0       32.141808  -33.011691   45.972045
     43          6           0       35.081134  -32.638539   45.068317
     44          6           0       35.096446  -33.840131   46.038800
     45          6           0       34.362363  -35.080763   45.502143
     46          7           0       34.227822  -36.137246   46.517407
     47          6           0       33.257863  -36.195108   47.443821
     48          7           0       32.337464  -35.243491   47.550324
     49          7           0       33.240475  -37.249965   48.287843
     50          8           0       31.857128  -31.913331   44.087831
     51          1           0       32.219622  -31.194869   43.501823
     52          1           0       34.749765  -30.474516   43.695733
     53          1           0       34.008316  -31.307488   46.398897
     54          1           0       36.032748  -32.102695   45.150106
     55          1           0       35.008919  -32.986809   44.027612
     56          1           0       34.653126  -33.543508   46.994962
     57          1           0       36.134247  -34.122166   46.250520
     58          1           0       34.909774  -35.520735   44.663555
     59          1           0       33.363737  -34.835810   45.138599
     60          1           0       35.032735  -36.730660   46.672148
     61          1           0       31.501303  -35.410223   48.093235
     62          1           0       32.359934  -34.367534   47.005237
     63          1           0       32.580755  -37.288743   49.051414
     64          1           0       33.708745  -38.112228   48.048719
 ---------------------------------------------------------------------

 SCF Done:  E(RB3LYP) =  -1486.56475163     A.U. after    1 cycles

 Alpha  occ. eigenvalues --  -19.28021 -19.23958 -19.23028 -19.22723 -19.21185
 Alpha  occ. eigenvalues --  -14.52660 -14.52464 -14.50962 -14.47174 -14.46391
 Alpha  occ. eigenvalues --  -14.40077 -10.48635 -10.42449 -10.39147 -10.38431
 Alpha  occ. eigenvalues --  -10.36220 -10.34802 -10.33001 -10.31989 -10.31749
 Alpha  occ. eigenvalues --  -10.31309 -10.30374 -10.29199 -10.27772 -10.26483
 Alpha  occ. eigenvalues --  -10.25135 -10.24956 -10.24850 -10.24844 -10.24450
 Alpha  occ. eigenvalues --  -10.23861  -1.19928  -1.16993  -1.14544  -1.13341
 Alpha  occ. eigenvalues --   -1.11344  -1.11127  -1.06503  -1.04760  -1.03722
 Alpha  occ. eigenvalues --   -1.02559  -0.97596  -0.92595  -0.91017  -0.89896
 Alpha  occ. eigenvalues --   -0.87028  -0.84711  -0.81969  -0.80347  -0.80213
 Alpha  occ. eigenvalues --   -0.78291  -0.77636  -0.76610  -0.74607  -0.73694
 Alpha  occ. eigenvalues --   -0.73208  -0.71496  -0.70968  -0.70344  -0.68208
 Alpha  occ. eigenvalues --   -0.67697  -0.65953  -0.65774  -0.65121  -0.64880
 Alpha  occ. eigenvalues --   -0.64504  -0.62588  -0.61153  -0.60135  -0.59973
 Alpha  occ. eigenvalues --   -0.59050  -0.58560  -0.58037  -0.57831  -0.56820
 Alpha  occ. eigenvalues --   -0.54943  -0.54753  -0.54611  -0.53823  -0.53699
 Alpha  occ. eigenvalues --   -0.53001  -0.52538  -0.52043  -0.51538  -0.50950
 Alpha  occ. eigenvalues --   -0.50037  -0.49631  -0.49503  -0.48655  -0.48381
 Alpha  occ. eigenvalues --   -0.47807  -0.47742  -0.47038  -0.46423  -0.46335
 Alpha  occ. eigenvalues --   -0.46092  -0.45540  -0.45176  -0.44088  -0.43167
 Alpha  occ. eigenvalues --   -0.43062  -0.42802  -0.42608  -0.41975  -0.41919
 Alpha  occ. eigenvalues --   -0.41331  -0.40972  -0.39273  -0.39107  -0.38453
 Alpha  occ. eigenvalues --   -0.37612  -0.36668  -0.35232  -0.34295  -0.32446
 Alpha  occ. eigenvalues --   -0.30528  -0.27253
 Alpha virt. eigenvalues --   -0.12570  -0.09887  -0.09127  -0.08671  -0.07635
 Alpha virt. eigenvalues --   -0.05731  -0.04996  -0.04952  -0.03802  -0.03413
 Alpha virt. eigenvalues --   -0.01828  -0.01190  -0.00298   0.01018   0.01359

 Mulliken charges:
               1
     1  N   -0.682342
     2  C   -0.055635
     3  C    0.591034
     4  O   -0.555760
     5  C   -0.400989
     6  C    0.184133
     7  C   -0.149260
     8  C   -0.189621
     9  C   -0.197005
    10  C   -0.156656
    11  C    0.354754
    12  O   -0.634738
    13  H    0.193020
    14  H    0.141654
    15  H    0.139905
    16  H    0.119262
    17  H    0.122673
    18  H    0.126157
    19  H    0.151103
    20  H    0.412228
    21  H    0.281270
    22  H    0.323395
    23  N   -0.657379
    24  C    0.000071
    25  C    0.606586
    26  O   -0.507867
    27  C   -0.131216
    28  C   -0.459946
    29  C   -0.449922
    30  H    0.357713
    31  H    0.198257
    32  H    0.145343
    33  H    0.133005
    34  H    0.173609
    35  H    0.158535
    36  H    0.177348
    37  H    0.161427
    38  H    0.158777
    39  N   -0.635415
    40  C   -0.024351
    41  C    0.628725
    42  O   -0.521809
    43  C   -0.319130
    44  C   -0.269384
    45  C   -0.188175
    46  N   -0.597155
    47  C    0.814987
    48  N   -0.786508
    49  N   -0.766837
    50  O   -0.570541
    51  H    0.485156
    52  H    0.338292
    53  H    0.205308
    54  H    0.182821
    55  H    0.153653
    56  H    0.170338
    57  H    0.162243
    58  H    0.187956
    59  H    0.210791
    60  H    0.361347
    61  H    0.373776
    62  H    0.458937
    63  H    0.381825
    64  H    0.380224
 Sum of Mulliken charges =   1.00000

 Dipole moment (field-independent basis, Debye):
    X=            167.5564    Y=           -164.8339    Z=            219.1406  Tot=            321.3533
 Quadrupole moment (field-independent basis, Debye-Ang):
   XX=           5663.8566   YY=           5556.2077   ZZ=           9870.3034
   XY=          -5728.9641   XZ=           7619.2543   YZ=          -7566.3689

 Normal termination of Gaussian 16 at Tue May 31 11:31:58 2022.
