 Gaussian 16, Revision C.01,
 Gaussian 16:  ES64L-G16RevC.01  3-Jul-2019

 ----------------------------------------------------------------------
 # B3LYP/6-31G* empiricaldispersion=gd3 guess=read geom=check nosymm in
 tegral(ultrafinegrid)
 ----------------------------------------------------------------------

 ------------------------------------------------------
 Candidate Structure: Conf:156 Charge calc in gas phase
 ------------------------------------------------------
 Structure from the checkpoint file:  "conf-156.chk"
 Charge =  1 Multiplicity = 1

                          Input orientation:
 ---------------------------------------------------------------------
 Center     Atomic      Atomic             Coordinates (Angstroms)
 Number     Number       Type             X           Y           Z
 ---------------------------------------------------------------------
      1          7           0       35.532232  -28.481676   40.508098
      2          6           0       35.201799  -28.956678   41.843439
      3          6           0       33.701665  -29.134827   42.080530
      4          8           0       32.986863  -29.720779   41.248452
      5          6           0       35.844906  -30.353413   42.094892
      6          6           0       37.327635  -30.306338   42.364345
      7          6           0       38.253375  -30.035207   41.344113
      8          6           0       37.813003  -30.512947   43.660143
      9          6           0       39.615533  -29.974560   41.609996
     10          6           0       39.177994  -30.455896   43.942922
     11          6           0       40.086109  -30.185622   42.913318
     12          8           0       41.432446  -30.115984   43.104922
     13          1           0       35.620234  -28.252169   42.571650
     14          1           0       35.344368  -30.821272   42.950536
     15          1           0       35.614792  -30.976073   41.219154
     16          1           0       37.894193  -29.853638   40.336644
     17          1           0       37.114845  -30.720823   44.470118
     18          1           0       40.334806  -29.766568   40.824608
     19          1           0       39.535896  -30.621709   44.957009
     20          1           0       41.641518  -30.276318   44.038419
     21          1           0       34.965732  -28.980576   39.823335
     22          1           0       35.314221  -27.492451   40.407461
     23          7           0       33.212692  -28.745665   43.282868
     24          6           0       31.836971  -29.029577   43.701663
     25          6           0       31.552275  -30.539096   43.570352
     26          8           0       30.496509  -30.930090   43.071756
     27          6           0       31.547880  -28.450680   45.109772
     28          6           0       32.428994  -29.049515   46.218177
     29          6           0       30.058564  -28.606462   45.448932
     30          1           0       33.803510  -28.195906   43.892946
     31          1           0       31.147472  -28.568859   42.987361
     32          1           0       31.769492  -27.375989   45.034444
     33          1           0       33.503036  -28.963931   46.007788
     34          1           0       32.246048  -28.525153   47.160800
     35          1           0       32.199063  -30.108442   46.377966
     36          1           0       29.777212  -29.662521   45.524653
     37          1           0       29.421977  -28.144340   44.687180
     38          1           0       29.840020  -28.129568   46.409164
     39          7           0       32.528485  -31.383579   44.012288
     40          6           0       32.740966  -32.682160   43.368407
     41          6           0       34.106191  -33.273821   43.676872
     42          8           0       34.550930  -34.217865   43.063718
     43          6           0       31.611209  -33.704950   43.641356
     44          6           0       31.600612  -34.928673   42.705117
     45          6           0       31.827006  -34.623241   41.212567
     46          7           0       30.987514  -33.516968   40.715316
     47          6           0       31.413045  -32.320097   40.292156
     48          7           0       32.651556  -32.134979   39.808692
     49          7           0       30.563195  -31.274361   40.321939
     50          8           0       34.770324  -32.644228   44.670564
     51          1           0       35.642347  -33.076815   44.761820
     52          1           0       33.360205  -30.949479   44.390339
     53          1           0       32.789085  -32.492291   42.294272
     54          1           0       30.678209  -33.150258   43.536167
     55          1           0       31.666592  -34.039016   44.683164
     56          1           0       30.640981  -35.443897   42.835027
     57          1           0       32.381213  -35.641388   42.988271
     58          1           0       31.627362  -35.514205   40.609852
     59          1           0       32.875306  -34.358191   41.064593
     60          1           0       29.992331  -33.583892   40.896587
     61          1           0       33.086134  -31.228586   39.991084
     62          1           0       33.246273  -32.920956   39.589504
     63          1           0       30.953234  -30.395994   39.999012
     64          1           0       30.050084  -31.160283   41.197469
 ---------------------------------------------------------------------

 SCF Done:  E(RB3LYP) =  -1486.57919223     A.U. after    3 cycles

 Alpha  occ. eigenvalues --  -19.32636 -19.26391 -19.25405 -19.24842 -19.24538
 Alpha  occ. eigenvalues --  -14.51770 -14.50666 -14.49396 -14.49079 -14.48256
 Alpha  occ. eigenvalues --  -14.42201 -10.46950 -10.44770 -10.41435 -10.41320
 Alpha  occ. eigenvalues --  -10.36510 -10.35736 -10.35216 -10.33618 -10.32359
 Alpha  occ. eigenvalues --  -10.31271 -10.30750 -10.30591 -10.29560 -10.28434
 Alpha  occ. eigenvalues --  -10.27324 -10.27311 -10.27131 -10.26574 -10.26306
 Alpha  occ. eigenvalues --  -10.25682  -1.23256  -1.17003  -1.15887  -1.15557
 Alpha  occ. eigenvalues --   -1.14270  -1.12995  -1.06145  -1.05291  -1.04564
 Alpha  occ. eigenvalues --   -1.03117  -0.99765  -0.93024  -0.92763  -0.91633
 Alpha  occ. eigenvalues --   -0.87601  -0.86826  -0.83384  -0.82298  -0.81730
 Alpha  occ. eigenvalues --   -0.79962  -0.78773  -0.77541  -0.75295  -0.74489
 Alpha  occ. eigenvalues --   -0.72518  -0.72277  -0.71291  -0.69961  -0.69755
 Alpha  occ. eigenvalues --   -0.68273  -0.67566  -0.66753  -0.66032  -0.65759
 Alpha  occ. eigenvalues --   -0.63468  -0.63130  -0.61924  -0.61732  -0.61580
 Alpha  occ. eigenvalues --   -0.60365  -0.59319  -0.58988  -0.58615  -0.58201
 Alpha  occ. eigenvalues --   -0.57519  -0.56404  -0.55965  -0.55383  -0.55159
 Alpha  occ. eigenvalues --   -0.54474  -0.53842  -0.53604  -0.53181  -0.52824
 Alpha  occ. eigenvalues --   -0.52640  -0.51558  -0.51327  -0.50950  -0.50313
 Alpha  occ. eigenvalues --   -0.49725  -0.49112  -0.48456  -0.47911  -0.47822
 Alpha  occ. eigenvalues --   -0.47273  -0.47017  -0.46586  -0.46256  -0.45194
 Alpha  occ. eigenvalues --   -0.44934  -0.44897  -0.44240  -0.44203  -0.43495
 Alpha  occ. eigenvalues --   -0.42282  -0.41176  -0.40527  -0.40405  -0.40177
 Alpha  occ. eigenvalues --   -0.39645  -0.39441  -0.37918  -0.36976  -0.34393
 Alpha  occ. eigenvalues --   -0.32641  -0.29212
 Alpha virt. eigenvalues --   -0.13119  -0.12078  -0.11186  -0.10617  -0.07915
 Alpha virt. eigenvalues --   -0.06958  -0.05921  -0.05462  -0.04290  -0.04161
 Alpha virt. eigenvalues --   -0.02059  -0.01288  -0.00281   0.00250   0.00396

 Mulliken charges:
               1
     1  N   -0.685761
     2  C   -0.070730
     3  C    0.624152
     4  O   -0.588611
     5  C   -0.368903
     6  C    0.170922
     7  C   -0.165534
     8  C   -0.209072
     9  C   -0.158871
    10  C   -0.190194
    11  C    0.356786
    12  O   -0.629591
    13  H    0.156556
    14  H    0.133367
    15  H    0.140358
    16  H    0.149657
    17  H    0.105173
    18  H    0.157651
    19  H    0.129391
    20  H    0.414514
    21  H    0.303365
    22  H    0.319850
    23  N   -0.632992
    24  C   -0.007710
    25  C    0.629797
    26  O   -0.558355
    27  C   -0.128435
    28  C   -0.475857
    29  C   -0.453406
    30  H    0.351779
    31  H    0.185843
    32  H    0.157050
    33  H    0.132992
    34  H    0.183548
    35  H    0.169608
    36  H    0.167091
    37  H    0.162640
    38  H    0.171565
    39  N   -0.611543
    40  C   -0.040071
    41  C    0.599078
    42  O   -0.448345
    43  C   -0.287948
    44  C   -0.291005
    45  C   -0.181187
    46  N   -0.563394
    47  C    0.717320
    48  N   -0.748651
    49  N   -0.723148
    50  O   -0.576003
    51  H    0.438578
    52  H    0.364806
    53  H    0.172854
    54  H    0.192728
    55  H    0.176307
    56  H    0.167530
    57  H    0.195691
    58  H    0.199628
    59  H    0.181686
    60  H    0.367969
    61  H    0.403180
    62  H    0.374475
    63  H    0.371795
    64  H    0.398036
 Sum of Mulliken charges =   1.00000

 Dipole moment (field-independent basis, Debye):
    X=            157.8058    Y=           -150.0694    Z=            205.1643  Tot=            299.1921
 Quadrupole moment (field-independent basis, Debye-Ang):
   XX=           5031.4313   YY=           4543.0777   ZZ=           8614.4906
   XY=          -4922.0877   XZ=           6760.4933   YZ=          -6398.6749

 Normal termination of Gaussian 16 at Tue May 31 11:32:13 2022.
