 Gaussian 16, Revision C.01,
 Gaussian 16:  ES64L-G16RevC.01  3-Jul-2019

 ----------------------------------------------------------------------
 # B3LYP/6-31G* empiricaldispersion=gd3 guess=read geom=check nosymm in
 tegral(ultrafinegrid)
 ----------------------------------------------------------------------

 ------------------------------------------------------
 Candidate Structure: Conf:883 Charge calc in gas phase
 ------------------------------------------------------
 Structure from the checkpoint file:  "conf-883.chk"
 Charge =  1 Multiplicity = 1

                          Input orientation:
 ---------------------------------------------------------------------
 Center     Atomic      Atomic             Coordinates (Angstroms)
 Number     Number       Type             X           Y           Z
 ---------------------------------------------------------------------
      1          7           0       31.661079  -31.805256   40.118919
      2          6           0       31.081538  -32.186046   41.396716
      3          6           0       31.965814  -33.017319   42.359627
      4          8           0       31.484026  -33.712739   43.238880
      5          6           0       30.652598  -30.929914   42.221099
      6          6           0       30.208849  -29.732625   41.409031
      7          6           0       30.724333  -28.459682   41.695119
      8          6           0       29.289725  -29.841947   40.358552
      9          6           0       30.355468  -27.333739   40.959970
     10          6           0       28.904369  -28.727871   39.617057
     11          6           0       29.439621  -27.466944   39.910555
     12          8           0       29.115744  -26.339146   39.218009
     13          1           0       30.199921  -32.804700   41.199820
     14          1           0       29.874182  -31.255733   42.920336
     15          1           0       31.500070  -30.616836   42.846027
     16          1           0       31.416214  -28.340804   42.526760
     17          1           0       28.881489  -30.814082   40.099987
     18          1           0       30.747129  -26.348727   41.193479
     19          1           0       28.191795  -28.837916   38.802144
     20          1           0       28.456749  -26.550826   38.538355
     21          1           0       32.298869  -31.017555   40.160091
     22          1           0       32.051092  -32.576489   39.587849
     23          7           0       33.307552  -32.758528   42.183822
     24          6           0       34.489193  -33.202026   42.916531
     25          6           0       35.486271  -32.034756   42.915524
     26          8           0       36.714422  -32.224466   42.826165
     27          6           0       34.221847  -33.715613   44.364070
     28          6           0       33.602152  -32.662109   45.291124
     29          6           0       35.511378  -34.292073   44.967889
     30          1           0       33.501579  -32.305474   41.298531
     31          1           0       34.994025  -34.008319   42.368555
     32          1           0       33.494646  -34.522971   44.248914
     33          1           0       33.356893  -33.122734   46.253241
     34          1           0       34.295395  -31.835106   45.489035
     35          1           0       32.672728  -32.258480   44.882641
     36          1           0       35.956647  -35.058312   44.322944
     37          1           0       35.292050  -34.754762   45.935133
     38          1           0       36.265383  -33.513007   45.135831
     39          7           0       34.942328  -30.807775   43.026091
     40          6           0       35.629165  -29.546327   42.793170
     41          6           0       34.869329  -28.675660   41.776719
     42          8           0       35.250807  -27.583899   41.440528
     43          6           0       35.814126  -28.701984   44.078965
     44          6           0       36.592389  -29.343153   45.239066
     45          6           0       38.112752  -29.504716   45.054018
     46          7           0       38.432255  -30.703956   44.271362
     47          6           0       39.412921  -31.568686   44.508018
     48          7           0       40.482402  -31.234516   45.253090
     49          7           0       39.313617  -32.815517   44.011972
     50          8           0       33.713543  -29.246919   41.360237
     51          1           0       33.200350  -28.591937   40.842631
     52          1           0       33.928372  -30.784762   43.032335
     53          1           0       36.599736  -29.772080   42.339970
     54          1           0       34.814015  -28.446384   44.450893
     55          1           0       36.285262  -27.759237   43.781658
     56          1           0       36.158724  -30.314164   45.508437
     57          1           0       36.449628  -28.694547   46.110566
     58          1           0       38.580578  -29.604852   46.039386
     59          1           0       38.536088  -28.615519   44.569524
     60          1           0       37.715497  -31.069682   43.626974
     61          1           0       41.139900  -31.933877   45.565941
     62          1           0       40.698140  -30.269346   45.452490
     63          1           0       40.139651  -33.375515   43.856735
     64          1           0       38.461361  -33.072401   43.517865
 ---------------------------------------------------------------------

 SCF Done:  E(RB3LYP) =  -1486.56414702     A.U. after    1 cycles

 Alpha  occ. eigenvalues --  -19.31707 -19.26311 -19.25578 -19.24370 -19.20187
 Alpha  occ. eigenvalues --  -14.52542 -14.51167 -14.50778 -14.49471 -14.45766
 Alpha  occ. eigenvalues --  -14.40860 -10.48120 -10.44050 -10.42364 -10.37272
 Alpha  occ. eigenvalues --  -10.37104 -10.36648 -10.34635 -10.32042 -10.31853
 Alpha  occ. eigenvalues --  -10.31702 -10.30942 -10.29346 -10.27585 -10.27193
 Alpha  occ. eigenvalues --  -10.26524 -10.26468 -10.26435 -10.26038 -10.25817
 Alpha  occ. eigenvalues --  -10.25646  -1.22239  -1.17658  -1.16479  -1.13561
 Alpha  occ. eigenvalues --   -1.12504  -1.12142  -1.06675  -1.05907  -1.04749
 Alpha  occ. eigenvalues --   -1.02506  -0.97788  -0.93117  -0.92294  -0.90482
 Alpha  occ. eigenvalues --   -0.88466  -0.85069  -0.83035  -0.81850  -0.81483
 Alpha  occ. eigenvalues --   -0.79061  -0.78753  -0.77797  -0.75069  -0.73973
 Alpha  occ. eigenvalues --   -0.72900  -0.72201  -0.71599  -0.70310  -0.69263
 Alpha  occ. eigenvalues --   -0.69040  -0.66345  -0.65634  -0.65301  -0.65175
 Alpha  occ. eigenvalues --   -0.64298  -0.63141  -0.62288  -0.61370  -0.60137
 Alpha  occ. eigenvalues --   -0.59348  -0.59282  -0.59071  -0.58474  -0.57661
 Alpha  occ. eigenvalues --   -0.56809  -0.56410  -0.55542  -0.55120  -0.54734
 Alpha  occ. eigenvalues --   -0.53937  -0.53645  -0.52949  -0.52530  -0.51782
 Alpha  occ. eigenvalues --   -0.51231  -0.51002  -0.50687  -0.49365  -0.49154
 Alpha  occ. eigenvalues --   -0.48621  -0.48404  -0.47998  -0.47625  -0.47532
 Alpha  occ. eigenvalues --   -0.47226  -0.47017  -0.45973  -0.45831  -0.44183
 Alpha  occ. eigenvalues --   -0.43663  -0.43501  -0.43307  -0.43135  -0.42646
 Alpha  occ. eigenvalues --   -0.42219  -0.41224  -0.40579  -0.40384  -0.39805
 Alpha  occ. eigenvalues --   -0.39565  -0.37917  -0.36224  -0.35131  -0.32414
 Alpha  occ. eigenvalues --   -0.30565  -0.28541
 Alpha virt. eigenvalues --   -0.12375  -0.11745  -0.10971  -0.07790  -0.07450
 Alpha virt. eigenvalues --   -0.07275  -0.05838  -0.04618  -0.04251  -0.02851
 Alpha virt. eigenvalues --   -0.02351  -0.02035  -0.01605  -0.00294  -0.00013

 Mulliken charges:
               1
     1  N   -0.735662
     2  C   -0.034695
     3  C    0.574094
     4  O   -0.499207
     5  C   -0.384908
     6  C    0.175208
     7  C   -0.238807
     8  C   -0.148597
     9  C   -0.169024
    10  C   -0.195603
    11  C    0.356658
    12  O   -0.633518
    13  H    0.179533
    14  H    0.194671
    15  H    0.130445
    16  H    0.114755
    17  H    0.144707
    18  H    0.151171
    19  H    0.136907
    20  H    0.416163
    21  H    0.312949
    22  H    0.317810
    23  N   -0.656947
    24  C    0.005707
    25  C    0.592043
    26  O   -0.588993
    27  C   -0.094107
    28  C   -0.480255
    29  C   -0.456655
    30  H    0.311994
    31  H    0.178461
    32  H    0.202595
    33  H    0.173168
    34  H    0.129465
    35  H    0.175175
    36  H    0.151826
    37  H    0.171632
    38  H    0.123712
    39  N   -0.570447
    40  C   -0.093054
    41  C    0.606325
    42  O   -0.424662
    43  C   -0.274277
    44  C   -0.314559
    45  C   -0.159002
    46  N   -0.637517
    47  C    0.792429
    48  N   -0.756043
    49  N   -0.778009
    50  O   -0.590657
    51  H    0.439598
    52  H    0.385622
    53  H    0.198784
    54  H    0.169121
    55  H    0.194696
    56  H    0.178254
    57  H    0.186701
    58  H    0.176112
    59  H    0.187768
    60  H    0.425319
    61  H    0.382248
    62  H    0.385563
    63  H    0.371043
    64  H    0.414774
 Sum of Mulliken charges =   1.00000

 Dipole moment (field-independent basis, Debye):
    X=            179.9520    Y=           -149.4874    Z=            209.6111  Tot=            314.1115
 Quadrupole moment (field-independent basis, Debye-Ang):
   XX=           6632.8815   YY=           4478.2017   ZZ=           8996.5009
   XY=          -5619.8349   XZ=           7901.1489   YZ=          -6519.6624

 Normal termination of Gaussian 16 at Tue May 31 11:31:54 2022.
