 Gaussian 16, Revision C.01,
 Gaussian 16:  ES64L-G16RevC.01  3-Jul-2019

 ----------------------------------------------------------------------
 # B3LYP/6-31G* empiricaldispersion=gd3 guess=read geom=check nosymm in
 tegral(ultrafinegrid)
 ----------------------------------------------------------------------

 ------------------------------------------------------
 Candidate Structure: Conf:772 Charge calc in gas phase
 ------------------------------------------------------
 Structure from the checkpoint file:  "conf-772.chk"
 Charge =  1 Multiplicity = 1

                          Input orientation:
 ---------------------------------------------------------------------
 Center     Atomic      Atomic             Coordinates (Angstroms)
 Number     Number       Type             X           Y           Z
 ---------------------------------------------------------------------
      1          7           0       34.294295  -28.931259   44.464604
      2          6           0       35.509830  -29.137694   43.648905
      3          6           0       35.492641  -30.618475   43.227419
      4          8           0       35.096831  -31.483535   44.005788
      5          6           0       35.535942  -28.118304   42.489459
      6          6           0       35.467927  -26.688954   42.981127
      7          6           0       34.257855  -25.985922   42.993073
      8          6           0       36.610940  -26.049561   43.486418
      9          6           0       34.183724  -24.684550   43.490609
     10          6           0       36.553941  -24.753970   43.985037
     11          6           0       35.334323  -24.063008   43.988834
     12          8           0       35.342248  -22.796953   44.487953
     13          1           0       36.420979  -28.999837   44.253017
     14          1           0       36.464085  -28.256503   41.918413
     15          1           0       34.694694  -28.329352   41.818842
     16          1           0       33.357821  -26.457595   42.605474
     17          1           0       37.565289  -26.572445   43.482766
     18          1           0       33.235022  -24.152110   43.485439
     19          1           0       37.437913  -24.255384   44.368720
     20          1           0       34.454057  -22.411982   44.424987
     21          1           0       34.264984  -29.624780   45.212007
     22          1           0       34.307469  -28.000504   44.877892
     23          7           0       35.882594  -30.940761   41.959659
     24          6           0       35.860259  -32.332536   41.513399
     25          6           0       34.462381  -32.939318   41.719531
     26          8           0       34.348294  -34.142610   42.015372
     27          6           0       36.365885  -32.453095   40.051710
     28          6           0       35.482544  -31.702884   39.041958
     29          6           0       36.530849  -33.925843   39.652526
     30          1           0       36.254991  -30.234096   41.342445
     31          1           0       36.506954  -32.931630   42.163079
     32          1           0       37.363416  -31.990065   40.050838
     33          1           0       35.354865  -30.642507   39.291544
     34          1           0       35.931276  -31.749501   38.045059
     35          1           0       34.484883  -32.152075   38.981059
     36          1           0       35.566358  -34.444366   39.640380
     37          1           0       37.186674  -34.459461   40.348256
     38          1           0       36.966574  -33.996300   38.651059
     39          7           0       33.405703  -32.122085   41.522530
     40          6           0       32.162989  -32.239728   42.298228
     41          6           0       32.088635  -31.049338   43.272292
     42          8           0       31.633207  -31.162195   44.387150
     43          6           0       30.910432  -32.335380   41.410894
     44          6           0       30.859890  -33.561410   40.483907
     45          6           0       30.635076  -34.915014   41.176848
     46          7           0       31.830201  -35.341006   41.918682
     47          6           0       31.852539  -35.919013   43.117580
     48          7           0       30.774115  -36.562176   43.602820
     49          7           0       32.966103  -35.833019   43.860693
     50          8           0       32.599921  -29.930973   42.743245
     51          1           0       33.034906  -29.363516   43.493337
     52          1           0       33.644065  -31.152332   41.339028
     53          1           0       32.249452  -33.116608   42.936747
     54          1           0       30.855653  -31.428864   40.796395
     55          1           0       30.031191  -32.323916   42.067495
     56          1           0       31.774060  -33.609660   39.877117
     57          1           0       30.033325  -33.428348   39.776883
     58          1           0       30.383015  -35.675169   40.427906
     59          1           0       29.793938  -34.836495   41.876015
     60          1           0       32.734442  -34.937582   41.641209
     61          1           0       30.721681  -36.834794   44.573286
     62          1           0       30.003500  -36.815181   43.003355
     63          1           0       33.139330  -36.477822   44.617790
     64          1           0       33.735247  -35.256736   43.519409
 ---------------------------------------------------------------------

 SCF Done:  E(RB3LYP) =  -1486.59696340     A.U. after    1 cycles

 Alpha  occ. eigenvalues --  -19.25542 -19.24720 -19.24485 -19.22257 -19.21749
 Alpha  occ. eigenvalues --  -14.51496 -14.49975 -14.49863 -14.47292 -14.46949
 Alpha  occ. eigenvalues --  -14.43645 -10.47022 -10.40941 -10.40033 -10.39397
 Alpha  occ. eigenvalues --  -10.35541 -10.34092 -10.33838 -10.33175 -10.32319
 Alpha  occ. eigenvalues --  -10.30752 -10.30431 -10.29979 -10.29048 -10.27649
 Alpha  occ. eigenvalues --  -10.27167 -10.26942 -10.26790 -10.26760 -10.26406
 Alpha  occ. eigenvalues --  -10.25845  -1.17334  -1.15978  -1.15311  -1.14246
 Alpha  occ. eigenvalues --   -1.12899  -1.08923  -1.04861  -1.04651  -1.03655
 Alpha  occ. eigenvalues --   -1.02797  -1.00070  -0.92985  -0.91726  -0.90821
 Alpha  occ. eigenvalues --   -0.86756  -0.86316  -0.82526  -0.82285  -0.80362
 Alpha  occ. eigenvalues --   -0.79177  -0.78058  -0.77291  -0.74255  -0.73158
 Alpha  occ. eigenvalues --   -0.72004  -0.71011  -0.69755  -0.69683  -0.68993
 Alpha  occ. eigenvalues --   -0.68656  -0.66845  -0.66254  -0.64462  -0.64250
 Alpha  occ. eigenvalues --   -0.63726  -0.62090  -0.61769  -0.61000  -0.60413
 Alpha  occ. eigenvalues --   -0.59573  -0.58489  -0.58077  -0.56570  -0.56257
 Alpha  occ. eigenvalues --   -0.55772  -0.55551  -0.54898  -0.54406  -0.54273
 Alpha  occ. eigenvalues --   -0.53854  -0.52989  -0.52721  -0.51582  -0.51208
 Alpha  occ. eigenvalues --   -0.50885  -0.50051  -0.50006  -0.49669  -0.49314
 Alpha  occ. eigenvalues --   -0.48615  -0.48474  -0.48330  -0.47572  -0.47235
 Alpha  occ. eigenvalues --   -0.46706  -0.46199  -0.45857  -0.45023  -0.44294
 Alpha  occ. eigenvalues --   -0.44157  -0.43964  -0.43628  -0.43246  -0.42062
 Alpha  occ. eigenvalues --   -0.41093  -0.40391  -0.39841  -0.39321  -0.38895
 Alpha  occ. eigenvalues --   -0.38453  -0.37216  -0.36106  -0.35677  -0.34106
 Alpha  occ. eigenvalues --   -0.32768  -0.29216
 Alpha virt. eigenvalues --   -0.11220  -0.10965  -0.09048  -0.07902  -0.07097
 Alpha virt. eigenvalues --   -0.06722  -0.06573  -0.03497  -0.03220  -0.01808
 Alpha virt. eigenvalues --   -0.01292  -0.00075   0.00384   0.00476   0.00989

 Mulliken charges:
               1
     1  N   -0.786897
     2  C   -0.061481
     3  C    0.638777
     4  O   -0.530802
     5  C   -0.384013
     6  C    0.140819
     7  C   -0.196905
     8  C   -0.186815
     9  C   -0.191061
    10  C   -0.154785
    11  C    0.356043
    12  O   -0.628946
    13  H    0.181297
    14  H    0.149489
    15  H    0.165133
    16  H    0.140550
    17  H    0.132054
    18  H    0.137191
    19  H    0.159832
    20  H    0.416315
    21  H    0.361372
    22  H    0.350595
    23  N   -0.663707
    24  C    0.005780
    25  C    0.635167
    26  O   -0.590421
    27  C   -0.130275
    28  C   -0.468040
    29  C   -0.447840
    30  H    0.351717
    31  H    0.194248
    32  H    0.156227
    33  H    0.139992
    34  H    0.177785
    35  H    0.156719
    36  H    0.153645
    37  H    0.162131
    38  H    0.166774
    39  N   -0.574199
    40  C   -0.070936
    41  C    0.609347
    42  O   -0.459878
    43  C   -0.271857
    44  C   -0.308759
    45  C   -0.149901
    46  N   -0.612367
    47  C    0.793068
    48  N   -0.760879
    49  N   -0.775592
    50  O   -0.641632
    51  H    0.465478
    52  H    0.366410
    53  H    0.172907
    54  H    0.172465
    55  H    0.171092
    56  H    0.169276
    57  H    0.180310
    58  H    0.187351
    59  H    0.170855
    60  H    0.402301
    61  H    0.381104
    62  H    0.384017
    63  H    0.369084
    64  H    0.423272
 Sum of Mulliken charges =   1.00000

 Dipole moment (field-independent basis, Debye):
    X=            158.3442    Y=           -159.3342    Z=            202.9683  Tot=            302.7481
 Quadrupole moment (field-independent basis, Debye-Ang):
   XX=           5077.0999   YY=           5198.2251   ZZ=           8411.9104
   XY=          -5221.8766   XZ=           6687.5304   YZ=          -6739.1212

 Normal termination of Gaussian 16 at Tue May 31 11:32:00 2022.
