 Gaussian 16, Revision C.01,
 Gaussian 16:  ES64L-G16RevC.01  3-Jul-2019

 ----------------------------------------------------------------------
 # B3LYP/6-31G* empiricaldispersion=gd3 guess=read geom=check nosymm in
 tegral(ultrafinegrid)
 ----------------------------------------------------------------------

 ------------------------------------------------------
 Candidate Structure: Conf:496 Charge calc in gas phase
 ------------------------------------------------------
 Structure from the checkpoint file:  "conf-496.chk"
 Charge =  1 Multiplicity = 1

                          Input orientation:
 ---------------------------------------------------------------------
 Center     Atomic      Atomic             Coordinates (Angstroms)
 Number     Number       Type             X           Y           Z
 ---------------------------------------------------------------------
      1          7           0       32.787306  -33.276803   45.145995
      2          6           0       33.842847  -33.336058   44.131820
      3          6           0       33.438663  -32.538487   42.890149
      4          8           0       34.056004  -32.714401   41.815154
      5          6           0       35.160826  -32.714952   44.677046
      6          6           0       35.714710  -33.489911   45.849261
      7          6           0       35.526154  -33.049406   47.167973
      8          6           0       36.396249  -34.697367   45.648673
      9          6           0       35.995370  -33.784520   48.253297
     10          6           0       36.873672  -35.443442   46.722993
     11          6           0       36.672670  -34.989026   48.033559
     12          8           0       37.111281  -35.665443   49.130742
     13          1           0       34.067135  -34.352705   43.781620
     14          1           0       35.884591  -32.679968   43.856158
     15          1           0       34.951495  -31.678500   44.970600
     16          1           0       35.016391  -32.105315   47.349971
     17          1           0       36.565002  -35.058315   44.636402
     18          1           0       35.856583  -33.440098   49.272781
     19          1           0       37.408188  -36.374533   46.546391
     20          1           0       37.579647  -36.469284   48.856050
     21          1           0       32.107415  -34.020864   45.002669
     22          1           0       33.187897  -33.421100   46.071544
     23          7           0       32.467626  -31.638081   43.106370
     24          6           0       31.848567  -30.622494   42.237953
     25          6           0       32.852860  -29.683028   41.546780
     26          8           0       32.686541  -28.448677   41.641295
     27          6           0       30.765278  -31.190303   41.271622
     28          6           0       31.281759  -32.192097   40.231097
     29          6           0       30.003760  -30.039636   40.595691
     30          1           0       32.115684  -31.716023   44.065635
     31          1           0       31.327290  -29.955816   42.928815
     32          1           0       30.066721  -31.721320   41.932619
     33          1           0       31.838243  -33.015770   40.683413
     34          1           0       30.434634  -32.615690   39.681718
     35          1           0       31.934678  -31.704856   39.497437
     36          1           0       30.647800  -29.495423   39.893441
     37          1           0       29.619341  -29.316700   41.323268
     38          1           0       29.156538  -30.433626   40.026063
     39          7           0       33.831012  -30.250632   40.826145
     40          6           0       34.999914  -29.551163   40.312283
     41          6           0       36.349570  -30.067393   40.874201
     42          8           0       37.330195  -29.383772   40.699669
     43          6           0       35.059366  -29.572365   38.768365
     44          6           0       33.881175  -28.896977   38.048329
     45          6           0       33.856841  -27.361693   38.109040
     46          7           0       33.511759  -26.887420   39.456636
     47          6           0       34.099141  -25.900305   40.129193
     48          7           0       34.780813  -24.927649   39.498829
     49          7           0       34.018854  -25.894205   41.469526
     50          8           0       36.416572  -31.241071   41.513520
     51          1           0       35.576191  -31.748558   41.575904
     52          1           0       33.846226  -31.276548   40.841578
     53          1           0       34.946231  -28.524488   40.670256
     54          1           0       35.108655  -30.619771   38.445185
     55          1           0       36.004984  -29.106640   38.470757
     56          1           0       32.926377  -29.293702   38.420367
     57          1           0       33.925099  -29.168333   36.987581
     58          1           0       33.126254  -26.972265   37.390721
     59          1           0       34.843278  -26.968472   37.837618
     60          1           0       32.962650  -27.518151   40.050679
     61          1           0       35.415129  -24.325639   40.003583
     62          1           0       34.726804  -24.815094   38.497843
     63          1           0       34.149982  -25.041324   41.993959
     64          1           0       33.577918  -26.691071   41.927000
 ---------------------------------------------------------------------

 SCF Done:  E(RB3LYP) =  -1486.58472224     A.U. after    2 cycles

 Alpha  occ. eigenvalues --  -19.27424 -19.25079 -19.24347 -19.23792 -19.21724
 Alpha  occ. eigenvalues --  -14.52087 -14.50730 -14.50723 -14.47850 -14.47600
 Alpha  occ. eigenvalues --  -14.42269 -10.47735 -10.41827 -10.40860 -10.40187
 Alpha  occ. eigenvalues --  -10.36118 -10.35158 -10.34935 -10.32332 -10.31901
 Alpha  occ. eigenvalues --  -10.31337 -10.30489 -10.30296 -10.28128 -10.27474
 Alpha  occ. eigenvalues --  -10.26893 -10.26628 -10.26406 -10.26398 -10.26027
 Alpha  occ. eigenvalues --  -10.25429  -1.18377  -1.16641  -1.15984  -1.14879
 Alpha  occ. eigenvalues --   -1.12510  -1.10097  -1.05597  -1.05110  -1.04369
 Alpha  occ. eigenvalues --   -1.04270  -0.99097  -0.92490  -0.92327  -0.91078
 Alpha  occ. eigenvalues --   -0.87266  -0.85760  -0.83224  -0.81877  -0.80820
 Alpha  occ. eigenvalues --   -0.79495  -0.78152  -0.77889  -0.74186  -0.73663
 Alpha  occ. eigenvalues --   -0.72433  -0.71577  -0.70311  -0.69917  -0.69348
 Alpha  occ. eigenvalues --   -0.68664  -0.68355  -0.65841  -0.65159  -0.64921
 Alpha  occ. eigenvalues --   -0.64770  -0.63447  -0.61381  -0.61362  -0.60424
 Alpha  occ. eigenvalues --   -0.60006  -0.59209  -0.57809  -0.57198  -0.56734
 Alpha  occ. eigenvalues --   -0.56159  -0.55731  -0.55165  -0.54645  -0.54142
 Alpha  occ. eigenvalues --   -0.53431  -0.52943  -0.52676  -0.52017  -0.51965
 Alpha  occ. eigenvalues --   -0.50956  -0.50517  -0.50467  -0.50215  -0.49256
 Alpha  occ. eigenvalues --   -0.48840  -0.48413  -0.47871  -0.47574  -0.46986
 Alpha  occ. eigenvalues --   -0.46742  -0.46363  -0.45890  -0.45127  -0.44743
 Alpha  occ. eigenvalues --   -0.44098  -0.43834  -0.43468  -0.42772  -0.42702
 Alpha  occ. eigenvalues --   -0.40648  -0.40355  -0.40083  -0.39971  -0.39687
 Alpha  occ. eigenvalues --   -0.39214  -0.37779  -0.36434  -0.35006  -0.34840
 Alpha  occ. eigenvalues --   -0.32335  -0.28771
 Alpha virt. eigenvalues --   -0.11975  -0.11484  -0.09859  -0.07979  -0.07565
 Alpha virt. eigenvalues --   -0.07189  -0.05788  -0.04211  -0.03723  -0.02157
 Alpha virt. eigenvalues --   -0.01839  -0.00556  -0.00110   0.00800   0.00967

 Mulliken charges:
               1
     1  N   -0.771043
     2  C   -0.036326
     3  C    0.617279
     4  O   -0.599827
     5  C   -0.385301
     6  C    0.157348
     7  C   -0.206649
     8  C   -0.185636
     9  C   -0.155443
    10  C   -0.188874
    11  C    0.355657
    12  O   -0.630559
    13  H    0.171990
    14  H    0.186321
    15  H    0.152473
    16  H    0.133545
    17  H    0.138990
    18  H    0.156382
    19  H    0.137260
    20  H    0.416007
    21  H    0.326439
    22  H    0.339053
    23  N   -0.603667
    24  C   -0.052983
    25  C    0.610156
    26  O   -0.589156
    27  C   -0.081896
    28  C   -0.470441
    29  C   -0.457648
    30  H    0.382212
    31  H    0.186911
    32  H    0.155515
    33  H    0.177169
    34  H    0.168918
    35  H    0.140710
    36  H    0.138832
    37  H    0.161537
    38  H    0.172759
    39  N   -0.606175
    40  C   -0.094430
    41  C    0.596972
    42  O   -0.444008
    43  C   -0.270625
    44  C   -0.316774
    45  C   -0.151091
    46  N   -0.609541
    47  C    0.790956
    48  N   -0.757887
    49  N   -0.776356
    50  O   -0.592354
    51  H    0.455562
    52  H    0.394842
    53  H    0.175259
    54  H    0.170391
    55  H    0.187566
    56  H    0.169230
    57  H    0.185009
    58  H    0.191068
    59  H    0.173297
    60  H    0.402540
    61  H    0.383877
    62  H    0.385606
    63  H    0.371278
    64  H    0.417771
 Sum of Mulliken charges =   1.00000

 Dipole moment (field-independent basis, Debye):
    X=            159.5008    Y=           -137.6975    Z=            197.7295  Tot=            288.9603
 Quadrupole moment (field-independent basis, Debye-Ang):
   XX=           5114.7818   YY=           3866.1149   ZZ=           8005.2021
   XY=          -4565.2198   XZ=           6567.5943   YZ=          -5716.3408

 Normal termination of Gaussian 16 at Tue May 31 11:32:03 2022.
