 Gaussian 16, Revision C.01,
 Gaussian 16:  ES64L-G16RevC.01  3-Jul-2019

 ----------------------------------------------------------------------
 # B3LYP/6-31G* empiricaldispersion=gd3 guess=read geom=check nosymm in
 tegral(ultrafinegrid)
 ----------------------------------------------------------------------

 ------------------------------------------------------
 Candidate Structure: Conf:549 Charge calc in gas phase
 ------------------------------------------------------
 Structure from the checkpoint file:  "conf-549.chk"
 Charge =  1 Multiplicity = 1

                          Input orientation:
 ---------------------------------------------------------------------
 Center     Atomic      Atomic             Coordinates (Angstroms)
 Number     Number       Type             X           Y           Z
 ---------------------------------------------------------------------
      1          7           0       34.927480  -30.497025   45.320257
      2          6           0       36.122396  -31.191565   44.792181
      3          6           0       35.769758  -32.495797   44.045404
      4          8           0       36.649287  -33.213330   43.596102
      5          6           0       36.844525  -30.268133   43.774618
      6          6           0       37.325773  -28.976207   44.391685
      7          6           0       36.565777  -27.802030   44.313431
      8          6           0       38.534182  -28.937951   45.106639
      9          6           0       36.993080  -26.623025   44.926918
     10          6           0       38.972828  -27.771852   45.720094
     11          6           0       38.200588  -26.604438   45.632482
     12          8           0       38.685139  -25.494636   46.253919
     13          1           0       36.838523  -31.452706   45.581352
     14          1           0       37.673796  -30.843125   43.352935
     15          1           0       36.151136  -30.048814   42.947983
     16          1           0       35.624502  -27.799638   43.767935
     17          1           0       39.144264  -29.835922   45.175632
     18          1           0       36.390296  -25.720586   44.850695
     19          1           0       39.910267  -27.737563   46.265412
     20          1           0       38.080112  -24.749168   46.115094
     21          1           0       34.635062  -30.914137   46.204447
     22          1           0       35.188072  -29.534721   45.547496
     23          7           0       34.420281  -32.667819   43.880021
     24          6           0       33.639157  -33.426685   42.909543
     25          6           0       32.687078  -32.433541   42.223125
     26          8           0       31.545847  -32.772847   41.864543
     27          6           0       34.453930  -34.255480   41.872498
     28          6           0       35.217656  -33.397598   40.854345
     29          6           0       33.529026  -35.252529   41.158026
     30          1           0       33.881037  -31.985648   44.399818
     31          1           0       32.981001  -34.121826   43.444749
     32          1           0       35.189136  -34.810147   42.461195
     33          1           0       35.877814  -32.672562   41.335668
     34          1           0       35.850026  -34.041897   40.235816
     35          1           0       34.532855  -32.867768   40.180317
     36          1           0       32.764687  -34.737011   40.564171
     37          1           0       33.017117  -35.912086   41.867581
     38          1           0       34.113702  -35.880416   40.478455
     39          7           0       33.160247  -31.176416   42.058572
     40          6           0       32.389909  -30.023300   41.614330
     41          6           0       32.499354  -28.802269   42.568941
     42          8           0       31.932501  -27.782542   42.261750
     43          6           0       32.769569  -29.553651   40.190144
     44          6           0       32.549558  -30.543349   39.034731
     45          6           0       31.089053  -30.830078   38.643195
     46          7           0       30.484732  -31.811757   39.550921
     47          6           0       29.546290  -32.700059   39.250212
     48          7           0       28.789933  -32.578922   38.145089
     49          7           0       29.373207  -33.762677   40.060299
     50          8           0       33.227539  -28.872086   43.692665
     51          1           0       33.612043  -29.736657   43.976583
     52          1           0       34.138957  -31.036278   42.280280
     53          1           0       31.336047  -30.312547   41.653742
     54          1           0       33.832492  -29.279924   40.202859
     55          1           0       32.215098  -28.629718   40.002152
     56          1           0       33.060314  -31.495076   39.226393
     57          1           0       33.033406  -30.114061   38.150480
     58          1           0       31.063640  -31.240293   37.626916
     59          1           0       30.504699  -29.900577   38.648826
     60          1           0       30.938060  -31.980416   40.460479
     61          1           0       28.200748  -33.334865   37.827879
     62          1           0       28.772334  -31.719860   37.616284
     63          1           0       28.489573  -34.251386   40.083682
     64          1           0       29.987729  -33.863028   40.863631
 ---------------------------------------------------------------------

 SCF Done:  E(RB3LYP) =  -1486.56969062     A.U. after    2 cycles

 Alpha  occ. eigenvalues --  -19.28622 -19.26694 -19.24477 -19.22874 -19.20948
 Alpha  occ. eigenvalues --  -14.52620 -14.51349 -14.50839 -14.50171 -14.46257
 Alpha  occ. eigenvalues --  -14.44441 -10.48193 -10.42892 -10.42078 -10.38503
 Alpha  occ. eigenvalues --  -10.36588 -10.36461 -10.35102 -10.32531 -10.32042
 Alpha  occ. eigenvalues --  -10.31873 -10.31113 -10.29790 -10.28601 -10.27199
 Alpha  occ. eigenvalues --  -10.27003 -10.26835 -10.26629 -10.26359 -10.26120
 Alpha  occ. eigenvalues --  -10.25540  -1.19403  -1.18007  -1.16637  -1.13071
 Alpha  occ. eigenvalues --   -1.12647  -1.11186  -1.06975  -1.05976  -1.04903
 Alpha  occ. eigenvalues --   -1.03419  -1.00182  -0.92831  -0.92654  -0.90923
 Alpha  occ. eigenvalues --   -0.88020  -0.86162  -0.83279  -0.82006  -0.81342
 Alpha  occ. eigenvalues --   -0.79611  -0.78631  -0.78028  -0.74430  -0.73825
 Alpha  occ. eigenvalues --   -0.73296  -0.72373  -0.71734  -0.70536  -0.69845
 Alpha  occ. eigenvalues --   -0.69185  -0.67150  -0.66212  -0.65894  -0.65165
 Alpha  occ. eigenvalues --   -0.64920  -0.63738  -0.62348  -0.61513  -0.60603
 Alpha  occ. eigenvalues --   -0.60097  -0.59359  -0.58444  -0.57591  -0.57351
 Alpha  occ. eigenvalues --   -0.56784  -0.56653  -0.55838  -0.55263  -0.54366
 Alpha  occ. eigenvalues --   -0.53945  -0.53373  -0.53126  -0.52897  -0.52170
 Alpha  occ. eigenvalues --   -0.51378  -0.50689  -0.49901  -0.49476  -0.49237
 Alpha  occ. eigenvalues --   -0.49105  -0.48725  -0.47857  -0.47638  -0.47477
 Alpha  occ. eigenvalues --   -0.47049  -0.46828  -0.45809  -0.45541  -0.44747
 Alpha  occ. eigenvalues --   -0.44299  -0.43820  -0.43294  -0.43196  -0.42697
 Alpha  occ. eigenvalues --   -0.41350  -0.40930  -0.40634  -0.40307  -0.40141
 Alpha  occ. eigenvalues --   -0.40034  -0.38346  -0.36557  -0.35318  -0.34015
 Alpha  occ. eigenvalues --   -0.32434  -0.28963
 Alpha virt. eigenvalues --   -0.12471  -0.12082  -0.09185  -0.08208  -0.07829
 Alpha virt. eigenvalues --   -0.07616  -0.06535  -0.04910  -0.04407  -0.02681
 Alpha virt. eigenvalues --   -0.02361  -0.02059  -0.01962  -0.00140   0.00662

 Mulliken charges:
               1
     1  N   -0.815207
     2  C   -0.046747
     3  C    0.594986
     4  O   -0.504597
     5  C   -0.378466
     6  C    0.147419
     7  C   -0.219036
     8  C   -0.185804
     9  C   -0.193274
    10  C   -0.154450
    11  C    0.356020
    12  O   -0.629154
    13  H    0.181255
    14  H    0.199392
    15  H    0.122298
    16  H    0.146532
    17  H    0.143289
    18  H    0.138147
    19  H    0.160374
    20  H    0.415754
    21  H    0.337086
    22  H    0.358099
    23  N   -0.651287
    24  C   -0.004760
    25  C    0.595602
    26  O   -0.578184
    27  C   -0.093115
    28  C   -0.485856
    29  C   -0.455277
    30  H    0.347703
    31  H    0.185889
    32  H    0.201399
    33  H    0.169486
    34  H    0.177509
    35  H    0.133934
    36  H    0.129290
    37  H    0.156557
    38  H    0.170674
    39  N   -0.598714
    40  C   -0.097833
    41  C    0.603471
    42  O   -0.429927
    43  C   -0.274369
    44  C   -0.323502
    45  C   -0.155304
    46  N   -0.642864
    47  C    0.798876
    48  N   -0.758139
    49  N   -0.778389
    50  O   -0.593559
    51  H    0.438515
    52  H    0.363606
    53  H    0.196331
    54  H    0.164544
    55  H    0.202311
    56  H    0.175912
    57  H    0.187223
    58  H    0.177695
    59  H    0.188305
    60  H    0.428328
    61  H    0.382934
    62  H    0.387356
    63  H    0.372212
    64  H    0.411498
 Sum of Mulliken charges =   1.00000

 Dipole moment (field-independent basis, Debye):
    X=            149.9423    Y=           -153.9726    Z=            194.6897  Tot=            289.9902
 Quadrupole moment (field-independent basis, Debye-Ang):
   XX=           4534.4378   YY=           4773.5925   ZZ=           7760.8362
   XY=          -4776.1098   XZ=           6115.0143   YZ=          -6229.1474

 Normal termination of Gaussian 16 at Tue May 31 11:32:06 2022.
