 Gaussian 16, Revision C.01,
 Gaussian 16:  ES64L-G16RevC.01  3-Jul-2019

 ----------------------------------------------------------------------
 # B3LYP/6-31G* empiricaldispersion=gd3 guess=read geom=check nosymm in
 tegral(ultrafinegrid)
 ----------------------------------------------------------------------

 ------------------------------------------------------
 Candidate Structure: Conf:879 Charge calc in gas phase
 ------------------------------------------------------
 Structure from the checkpoint file:  "conf-879.chk"
 Charge =  1 Multiplicity = 1

                          Input orientation:
 ---------------------------------------------------------------------
 Center     Atomic      Atomic             Coordinates (Angstroms)
 Number     Number       Type             X           Y           Z
 ---------------------------------------------------------------------
      1          7           0       31.854657  -31.690531   39.537388
      2          6           0       31.827180  -31.129927   40.880796
      3          6           0       32.845340  -31.805047   41.811549
      4          8           0       33.919292  -32.239281   41.402490
      5          6           0       32.140005  -29.606271   40.828418
      6          6           0       31.019893  -28.782102   40.241283
      7          6           0       30.762621  -28.772460   38.860866
      8          6           0       30.190248  -28.021197   41.071383
      9          6           0       29.715201  -28.029610   38.329757
     10          6           0       29.134221  -27.270422   40.553576
     11          6           0       28.893919  -27.273299   39.175827
     12          8           0       27.885329  -26.563019   38.593396
     13          1           0       30.815566  -31.251860   41.287948
     14          1           0       32.365600  -29.254045   41.842550
     15          1           0       33.063614  -29.497067   40.243824
     16          1           0       31.383049  -29.371278   38.202971
     17          1           0       30.369290  -28.004524   42.145167
     18          1           0       29.515104  -28.019229   37.263210
     19          1           0       28.504077  -26.680908   41.216704
     20          1           0       27.391720  -26.080835   39.274884
     21          1           0       32.829497  -31.832221   39.271127
     22          1           0       31.420561  -32.611532   39.526878
     23          7           0       32.542419  -31.831257   43.154899
     24          6           0       33.351426  -32.646352   44.058611
     25          6           0       34.820955  -32.227681   43.998497
     26          8           0       35.710317  -33.088960   44.133026
     27          6           0       32.777914  -32.610428   45.501520
     28          6           0       32.745107  -31.199861   46.109249
     29          6           0       33.522530  -33.591922   46.416604
     30          1           0       31.587536  -31.640441   43.432270
     31          1           0       33.361846  -33.687140   43.713480
     32          1           0       31.741487  -32.966755   45.404893
     33          1           0       32.232562  -31.220718   47.075914
     34          1           0       33.758714  -30.818825   46.278474
     35          1           0       32.219097  -30.480436   45.471421
     36          1           0       33.532854  -34.604185   45.999538
     37          1           0       33.037819  -33.631260   47.397024
     38          1           0       34.563133  -33.284274   46.566942
     39          7           0       35.077832  -30.909650   43.873946
     40          6           0       36.360981  -30.390874   43.407982
     41          6           0       36.186997  -29.531234   42.156791
     42          8           0       37.026364  -29.427049   41.298394
     43          6           0       37.104578  -29.553982   44.476292
     44          6           0       37.531275  -30.307376   45.746533
     45          6           0       38.709768  -31.280697   45.579144
     46          7           0       38.293005  -32.478084   44.839765
     47          6           0       38.955654  -33.086793   43.859890
     48          7           0       40.286654  -32.946907   43.720673
     49          7           0       38.266534  -33.830281   42.979217
     50          8           0       35.017878  -28.850803   42.174771
     51          1           0       34.963012  -28.316042   41.359745
     52          1           0       34.271376  -30.319520   43.699484
     53          1           0       36.967422  -31.237478   43.091114
     54          1           0       36.447423  -28.725265   44.765040
     55          1           0       37.985086  -29.106876   43.998003
     56          1           0       36.673190  -30.840132   46.178041
     57          1           0       37.834275  -29.567275   46.495546
     58          1           0       39.089211  -31.574987   46.564535
     59          1           0       39.524984  -30.788316   45.035908
     60          1           0       37.289386  -32.706386   44.858494
     61          1           0       40.761195  -33.264423   42.888058
     62          1           0       40.853673  -32.583878   44.471930
     63          1           0       38.722773  -34.539867   42.424349
     64          1           0       37.249534  -33.841481   43.044649
 ---------------------------------------------------------------------

 SCF Done:  E(RB3LYP) =  -1486.57830618     A.U. after    1 cycles

 Alpha  occ. eigenvalues --  -19.30996 -19.24952 -19.24842 -19.23165 -19.22057
 Alpha  occ. eigenvalues --  -14.52112 -14.50727 -14.50401 -14.48317 -14.46805
 Alpha  occ. eigenvalues --  -14.39323 -10.47688 -10.43156 -10.41610 -10.38233
 Alpha  occ. eigenvalues --  -10.36248 -10.35841 -10.34209 -10.31755 -10.31367
 Alpha  occ. eigenvalues --  -10.31035 -10.30709 -10.30483 -10.27804 -10.27194
 Alpha  occ. eigenvalues --  -10.27138 -10.25242 -10.25038 -10.24653 -10.24350
 Alpha  occ. eigenvalues --  -10.23817  -1.21623  -1.16662  -1.15927  -1.13759
 Alpha  occ. eigenvalues --   -1.12803  -1.11252  -1.05547  -1.05453  -1.04317
 Alpha  occ. eigenvalues --   -1.02793  -0.97071  -0.92743  -0.91041  -0.90940
 Alpha  occ. eigenvalues --   -0.88060  -0.84560  -0.82556  -0.81097  -0.80340
 Alpha  occ. eigenvalues --   -0.78679  -0.78198  -0.77656  -0.74424  -0.73671
 Alpha  occ. eigenvalues --   -0.72858  -0.71592  -0.70934  -0.69874  -0.69239
 Alpha  occ. eigenvalues --   -0.67899  -0.66298  -0.65096  -0.64876  -0.64669
 Alpha  occ. eigenvalues --   -0.64114  -0.62470  -0.61378  -0.60472  -0.59879
 Alpha  occ. eigenvalues --   -0.59404  -0.58882  -0.58595  -0.57367  -0.56914
 Alpha  occ. eigenvalues --   -0.56473  -0.55437  -0.55096  -0.54147  -0.53963
 Alpha  occ. eigenvalues --   -0.53713  -0.53516  -0.53038  -0.51577  -0.51442
 Alpha  occ. eigenvalues --   -0.50923  -0.50542  -0.50362  -0.49556  -0.48992
 Alpha  occ. eigenvalues --   -0.48589  -0.47903  -0.47788  -0.47721  -0.47085
 Alpha  occ. eigenvalues --   -0.46930  -0.45994  -0.45608  -0.44550  -0.44400
 Alpha  occ. eigenvalues --   -0.44029  -0.43517  -0.43059  -0.42763  -0.42636
 Alpha  occ. eigenvalues --   -0.41500  -0.40564  -0.40137  -0.39283  -0.38775
 Alpha  occ. eigenvalues --   -0.38321  -0.37065  -0.36649  -0.35621  -0.31917
 Alpha  occ. eigenvalues --   -0.30595  -0.27336
 Alpha virt. eigenvalues --   -0.11901  -0.11246  -0.09815  -0.08425  -0.07340
 Alpha virt. eigenvalues --   -0.05803  -0.04855  -0.04125  -0.03779  -0.03050
 Alpha virt. eigenvalues --   -0.02816  -0.01785  -0.00825   0.00575   0.01172

 Mulliken charges:
               1
     1  N   -0.687149
     2  C   -0.076923
     3  C    0.596456
     4  O   -0.527295
     5  C   -0.355139
     6  C    0.166042
     7  C   -0.161550
     8  C   -0.197144
     9  C   -0.161241
    10  C   -0.192223
    11  C    0.353697
    12  O   -0.634229
    13  H    0.147679
    14  H    0.137165
    15  H    0.138635
    16  H    0.146779
    17  H    0.110372
    18  H    0.151132
    19  H    0.124849
    20  H    0.411584
    21  H    0.316683
    22  H    0.311313
    23  N   -0.649410
    24  C   -0.005992
    25  C    0.651845
    26  O   -0.599676
    27  C   -0.127994
    28  C   -0.464180
    29  C   -0.447226
    30  H    0.341705
    31  H    0.187349
    32  H    0.154926
    33  H    0.176168
    34  H    0.150060
    35  H    0.146208
    36  H    0.163729
    37  H    0.168052
    38  H    0.145602
    39  N   -0.577228
    40  C   -0.062619
    41  C    0.605429
    42  O   -0.437807
    43  C   -0.274793
    44  C   -0.312944
    45  C   -0.150131
    46  N   -0.611871
    47  C    0.787657
    48  N   -0.758542
    49  N   -0.774021
    50  O   -0.577827
    51  H    0.437540
    52  H    0.377908
    53  H    0.181027
    54  H    0.175179
    55  H    0.175420
    56  H    0.172001
    57  H    0.184506
    58  H    0.191100
    59  H    0.171563
    60  H    0.408907
    61  H    0.382471
    62  H    0.384844
    63  H    0.371366
    64  H    0.420203
 Sum of Mulliken charges =   1.00000

 Dipole moment (field-independent basis, Debye):
    X=            176.1331    Y=           -153.2188    Z=            213.5474  Tot=            316.3879
 Quadrupole moment (field-independent basis, Debye-Ang):
   XX=           6365.0925   YY=           4734.6043   ZZ=           9312.1705
   XY=          -5644.4807   XZ=           7826.6335   YZ=          -6802.3659

 Normal termination of Gaussian 16 at Tue May 31 11:31:54 2022.
