 Gaussian 16, Revision C.01,
 Gaussian 16:  ES64L-G16RevC.01  3-Jul-2019

 ----------------------------------------------------------------------
 # B3LYP/6-31G* empiricaldispersion=gd3 guess=read geom=check nosymm in
 tegral(ultrafinegrid)
 ----------------------------------------------------------------------

 ------------------------------------------------------
 Candidate Structure: Conf:472 Charge calc in gas phase
 ------------------------------------------------------
 Structure from the checkpoint file:  "conf-472.chk"
 Charge =  1 Multiplicity = 1

                          Input orientation:
 ---------------------------------------------------------------------
 Center     Atomic      Atomic             Coordinates (Angstroms)
 Number     Number       Type             X           Y           Z
 ---------------------------------------------------------------------
      1          7           0       35.596188  -31.070081   42.687380
      2          6           0       35.119707  -31.031850   44.088973
      3          6           0       33.600654  -31.136755   43.939298
      4          8           0       32.888885  -30.127529   43.885650
      5          6           0       35.776796  -32.145680   44.931036
      6          6           0       37.264968  -31.925265   45.090086
      7          6           0       38.192833  -32.656267   44.340253
      8          6           0       37.750976  -30.941692   45.966549
      9          6           0       39.563877  -32.418054   44.451755
     10          6           0       39.111347  -30.693355   46.090789
     11          6           0       40.027934  -31.432655   45.328838
     12          8           0       41.346352  -31.141401   45.496281
     13          1           0       35.318606  -30.068489   44.574065
     14          1           0       35.280155  -32.179681   45.907975
     15          1           0       35.610499  -33.120667   44.453139
     16          1           0       37.847728  -33.438236   43.666505
     17          1           0       37.050848  -30.366296   46.568636
     18          1           0       40.268655  -33.002325   43.864244
     19          1           0       39.489467  -29.940093   46.774098
     20          1           0       41.886656  -31.722372   44.938014
     21          1           0       35.627220  -30.129685   42.297435
     22          1           0       36.557171  -31.411523   42.660236
     23          7           0       33.104730  -32.371197   43.668119
     24          6           0       31.816930  -32.527394   43.001361
     25          6           0       31.731740  -31.590382   41.780449
     26          8           0       30.657799  -31.043430   41.518281
     27          6           0       31.538938  -34.013439   42.658026
     28          6           0       32.536531  -34.605149   41.648664
     29          6           0       30.094679  -34.192311   42.169385
     30          1           0       33.747897  -33.150259   43.652060
     31          1           0       31.027158  -32.167053   43.666036
     32          1           0       31.647322  -34.553181   43.609490
     33          1           0       33.583869  -34.491887   41.956688
     34          1           0       32.351875  -35.676792   41.527941
     35          1           0       32.426167  -34.133817   40.665929
     36          1           0       29.922910  -33.655133   41.230546
     37          1           0       29.374128  -33.817692   42.903706
     38          1           0       29.885056  -35.252530   41.997088
     39          7           0       32.873114  -31.427869   41.048925
     40          6           0       33.135719  -30.238811   40.210237
     41          6           0       34.624682  -30.277901   39.832316
     42          8           0       35.358998  -29.333795   39.985085
     43          6           0       32.327339  -30.112213   38.892605
     44          6           0       30.896077  -29.541319   38.924969
     45          6           0       30.739617  -28.177334   39.615149
     46          7           0       30.798400  -28.326378   41.077145
     47          6           0       31.160692  -27.386564   41.944527
     48          7           0       31.158416  -26.089293   41.577653
     49          7           0       31.544932  -27.729890   43.180262
     50          8           0       35.062081  -31.428047   39.277954
     51          1           0       34.347128  -32.088800   39.251622
     52          1           0       33.721809  -31.741956   41.528043
     53          1           0       33.024355  -29.335022   40.812543
     54          1           0       32.299343  -31.093723   38.404208
     55          1           0       32.923239  -29.459577   38.240683
     56          1           0       30.202850  -30.254746   39.373900
     57          1           0       30.583648  -29.406395   37.883059
     58          1           0       29.775766  -27.737512   39.328767
     59          1           0       31.533474  -27.489300   39.297045
     60          1           0       30.647882  -29.279870   41.427021
     61          1           0       31.591163  -25.382068   42.153100
     62          1           0       30.627734  -25.777534   40.777912
     63          1           0       31.626554  -27.030848   43.904146
     64          1           0       31.879949  -28.671867   43.401954
 ---------------------------------------------------------------------

 SCF Done:  E(RB3LYP) =  -1486.57332136     A.U. after    3 cycles

 Alpha  occ. eigenvalues --  -19.29910 -19.24992 -19.24455 -19.24190 -19.23847
 Alpha  occ. eigenvalues --  -14.51422 -14.49653 -14.49632 -14.47967 -14.47730
 Alpha  occ. eigenvalues --  -14.42973 -10.46880 -10.42424 -10.41237 -10.40420
 Alpha  occ. eigenvalues --  -10.35584 -10.35439 -10.34355 -10.33036 -10.32613
 Alpha  occ. eigenvalues --  -10.31135 -10.30567 -10.30419 -10.29422 -10.28016
 Alpha  occ. eigenvalues --  -10.27528 -10.27382 -10.27043 -10.26710 -10.26692
 Alpha  occ. eigenvalues --  -10.26174  -1.20536  -1.16523  -1.15379  -1.15258
 Alpha  occ. eigenvalues --   -1.13177  -1.12316  -1.05431  -1.04645  -1.03660
 Alpha  occ. eigenvalues --   -1.03400  -0.99772  -0.93276  -0.92077  -0.91012
 Alpha  occ. eigenvalues --   -0.87101  -0.86608  -0.82920  -0.82625  -0.80917
 Alpha  occ. eigenvalues --   -0.79542  -0.78238  -0.77299  -0.74785  -0.73694
 Alpha  occ. eigenvalues --   -0.72257  -0.72121  -0.70817  -0.69961  -0.69514
 Alpha  occ. eigenvalues --   -0.68086  -0.67619  -0.66864  -0.65617  -0.65007
 Alpha  occ. eigenvalues --   -0.63951  -0.62502  -0.62129  -0.62062  -0.60434
 Alpha  occ. eigenvalues --   -0.59731  -0.58778  -0.58375  -0.57965  -0.57117
 Alpha  occ. eigenvalues --   -0.56314  -0.55922  -0.55612  -0.54848  -0.54641
 Alpha  occ. eigenvalues --   -0.53953  -0.53721  -0.53106  -0.52573  -0.52101
 Alpha  occ. eigenvalues --   -0.51555  -0.51163  -0.50576  -0.50048  -0.49592
 Alpha  occ. eigenvalues --   -0.48687  -0.48410  -0.48392  -0.47898  -0.47423
 Alpha  occ. eigenvalues --   -0.47085  -0.46925  -0.46773  -0.45666  -0.45185
 Alpha  occ. eigenvalues --   -0.44306  -0.44168  -0.43983  -0.43569  -0.42103
 Alpha  occ. eigenvalues --   -0.41767  -0.41421  -0.40668  -0.39710  -0.39640
 Alpha  occ. eigenvalues --   -0.38214  -0.37954  -0.37457  -0.36219  -0.35536
 Alpha  occ. eigenvalues --   -0.33046  -0.29527
 Alpha virt. eigenvalues --   -0.12195  -0.11177  -0.09992  -0.09128  -0.08332
 Alpha virt. eigenvalues --   -0.07025  -0.06819  -0.04816  -0.03690  -0.03327
 Alpha virt. eigenvalues --   -0.01241  -0.00753  -0.00376   0.00173   0.00441

 Mulliken charges:
               1
     1  N   -0.782175
     2  C   -0.048109
     3  C    0.621405
     4  O   -0.558941
     5  C   -0.390440
     6  C    0.158991
     7  C   -0.205361
     8  C   -0.183567
     9  C   -0.188734
    10  C   -0.153627
    11  C    0.356762
    12  O   -0.628803
    13  H    0.164641
    14  H    0.177391
    15  H    0.141537
    16  H    0.131867
    17  H    0.133560
    18  H    0.138271
    19  H    0.159403
    20  H    0.416918
    21  H    0.341946
    22  H    0.338408
    23  N   -0.622286
    24  C    0.001880
    25  C    0.611729
    26  O   -0.554294
    27  C   -0.127987
    28  C   -0.468176
    29  C   -0.450737
    30  H    0.354411
    31  H    0.194101
    32  H    0.161550
    33  H    0.136250
    34  H    0.181170
    35  H    0.152050
    36  H    0.162736
    37  H    0.163551
    38  H    0.167479
    39  N   -0.647445
    40  C   -0.049465
    41  C    0.594429
    42  O   -0.449760
    43  C   -0.283217
    44  C   -0.308016
    45  C   -0.158050
    46  N   -0.626242
    47  C    0.790291
    48  N   -0.759906
    49  N   -0.791134
    50  O   -0.552785
    51  H    0.425822
    52  H    0.379690
    53  H    0.174868
    54  H    0.160072
    55  H    0.180600
    56  H    0.200526
    57  H    0.174571
    58  H    0.182438
    59  H    0.175989
    60  H    0.422407
    61  H    0.377337
    62  H    0.383439
    63  H    0.364836
    64  H    0.433935
 Sum of Mulliken charges =   1.00000

 Dipole moment (field-independent basis, Debye):
    X=            156.5612    Y=           -142.9156    Z=            201.9546  Tot=            292.7831
 Quadrupole moment (field-independent basis, Debye-Ang):
   XX=           4960.3291   YY=           4138.7989   ZZ=           8329.9086
   XY=          -4691.8621   XZ=           6601.8903   YZ=          -6013.1446

 Normal termination of Gaussian 16 at Tue May 31 11:32:15 2022.
