 Gaussian 16, Revision C.01,
 Gaussian 16:  ES64L-G16RevC.01  3-Jul-2019

 ----------------------------------------------------------------------
 # B3LYP/6-31G* empiricaldispersion=gd3 guess=read geom=check nosymm in
 tegral(ultrafinegrid)
 ----------------------------------------------------------------------

 ------------------------------------------------------
 Candidate Structure: Conf:880 Charge calc in gas phase
 ------------------------------------------------------
 Structure from the checkpoint file:  "conf-880.chk"
 Charge =  1 Multiplicity = 1

                          Input orientation:
 ---------------------------------------------------------------------
 Center     Atomic      Atomic             Coordinates (Angstroms)
 Number     Number       Type             X           Y           Z
 ---------------------------------------------------------------------
      1          7           0       29.990676  -32.190147   40.619952
      2          6           0       30.915616  -31.392624   41.423975
      3          6           0       31.650105  -32.280640   42.466333
      4          8           0       31.014960  -33.087700   43.129055
      5          6           0       31.809222  -30.520219   40.515456
      6          6           0       31.087961  -29.367476   39.850682
      7          6           0       31.371230  -28.050952   40.241345
      8          6           0       30.130195  -29.564148   38.847969
      9          6           0       30.730868  -26.960275   39.660300
     10          6           0       29.480016  -28.483189   38.256534
     11          6           0       29.777857  -27.175543   38.659459
     12          8           0       29.180524  -26.074786   38.118763
     13          1           0       30.303399  -30.716986   42.036799
     14          1           0       32.617781  -30.085748   41.112474
     15          1           0       32.280773  -31.170514   39.761914
     16          1           0       32.105802  -27.872055   41.026369
     17          1           0       29.875910  -30.573926   38.545710
     18          1           0       30.950304  -25.942322   39.965824
     19          1           0       28.737499  -28.655140   37.479645
     20          1           0       28.534238  -26.352241   37.450860
     21          1           0       30.513462  -32.898176   40.103122
     22          1           0       29.372045  -32.702790   41.247037
     23          7           0       33.003901  -32.061266   42.632342
     24          6           0       33.906893  -32.839904   43.487209
     25          6           0       35.230313  -32.080552   43.579094
     26          8           0       36.320397  -32.680478   43.637243
     27          6           0       33.345919  -33.138089   44.916974
     28          6           0       32.843085  -31.888667   45.648723
     29          6           0       34.377292  -33.903007   45.758634
     30          1           0       33.456658  -31.607343   41.849839
     31          1           0       34.153253  -33.803667   43.023837
     32          1           0       32.486934  -33.788847   44.743880
     33          1           0       32.386679  -32.180050   46.600022
     34          1           0       33.659377  -31.191434   45.877986
     35          1           0       32.081386  -31.358883   45.069998
     36          1           0       34.774814  -34.773529   45.225744
     37          1           0       33.907694  -34.256543   46.681843
     38          1           0       35.228090  -33.270279   46.041461
     39          7           0       35.139936  -30.733193   43.638049
     40          6           0       36.271606  -29.838018   43.488413
     41          6           0       36.087223  -28.854486   42.323497
     42          8           0       36.904590  -28.012302   42.047085
     43          6           0       36.578771  -29.038861   44.772952
     44          6           0       36.936817  -29.890477   45.998080
     45          6           0       38.318949  -30.552213   45.961757
     46          7           0       38.295825  -31.691240   45.037567
     47          6           0       39.338980  -32.361348   44.565143
     48          7           0       40.579220  -32.158557   45.040231
     49          7           0       39.141646  -33.246414   43.568843
     50          8           0       34.921616  -29.032669   41.658881
     51          1           0       34.877041  -28.365026   40.946043
     52          1           0       34.208264  -30.338628   43.567469
     53          1           0       37.132926  -30.452933   43.213018
     54          1           0       35.698176  -28.432897   45.020032
     55          1           0       37.381914  -28.331090   44.542107
     56          1           0       36.169656  -30.654596   46.181416
     57          1           0       36.919914  -29.235261   46.875437
     58          1           0       38.589538  -30.895914   46.968557
     59          1           0       39.077296  -29.827208   45.636922
     60          1           0       37.388305  -31.994726   44.658508
     61          1           0       41.388907  -32.520255   44.557216
     62          1           0       40.745519  -31.534381   45.815304
     63          1           0       39.815375  -33.977839   43.391597
     64          1           0       38.193257  -33.394962   43.236526
 ---------------------------------------------------------------------

 SCF Done:  E(RB3LYP) =  -1486.56120066     A.U. after    1 cycles

 Alpha  occ. eigenvalues --  -19.32258 -19.26733 -19.25970 -19.23332 -19.20628
 Alpha  occ. eigenvalues --  -14.52646 -14.51157 -14.50548 -14.50230 -14.46296
 Alpha  occ. eigenvalues --  -14.38978 -10.48141 -10.44417 -10.43084 -10.37554
 Alpha  occ. eigenvalues --  -10.37254 -10.36871 -10.34669 -10.32307 -10.31933
 Alpha  occ. eigenvalues --  -10.30692 -10.30370 -10.29168 -10.27308 -10.26981
 Alpha  occ. eigenvalues --  -10.26669 -10.25467 -10.25370 -10.24690 -10.24625
 Alpha  occ. eigenvalues --  -10.24368  -1.22778  -1.18423  -1.16600  -1.13938
 Alpha  occ. eigenvalues --   -1.12620  -1.11424  -1.07243  -1.06017  -1.04894
 Alpha  occ. eigenvalues --   -1.02455  -0.96531  -0.93566  -0.91206  -0.90693
 Alpha  occ. eigenvalues --   -0.88705  -0.84576  -0.83056  -0.81512  -0.80601
 Alpha  occ. eigenvalues --   -0.79009  -0.77989  -0.77458  -0.75405  -0.74300
 Alpha  occ. eigenvalues --   -0.73067  -0.72418  -0.71966  -0.70587  -0.69018
 Alpha  occ. eigenvalues --   -0.68027  -0.66455  -0.65559  -0.65063  -0.64985
 Alpha  occ. eigenvalues --   -0.64400  -0.63350  -0.62197  -0.61180  -0.60398
 Alpha  occ. eigenvalues --   -0.60236  -0.59255  -0.58470  -0.57581  -0.57232
 Alpha  occ. eigenvalues --   -0.56783  -0.55981  -0.55660  -0.54909  -0.54481
 Alpha  occ. eigenvalues --   -0.54204  -0.53285  -0.52497  -0.52338  -0.52130
 Alpha  occ. eigenvalues --   -0.51422  -0.51278  -0.50268  -0.49166  -0.48797
 Alpha  occ. eigenvalues --   -0.48372  -0.48108  -0.47938  -0.47618  -0.47534
 Alpha  occ. eigenvalues --   -0.47260  -0.46104  -0.45810  -0.44436  -0.43903
 Alpha  occ. eigenvalues --   -0.43541  -0.43401  -0.43300  -0.42989  -0.42713
 Alpha  occ. eigenvalues --   -0.42052  -0.41725  -0.40588  -0.39880  -0.39507
 Alpha  occ. eigenvalues --   -0.38551  -0.38322  -0.35946  -0.34443  -0.31425
 Alpha  occ. eigenvalues --   -0.30703  -0.27533
 Alpha virt. eigenvalues --   -0.12709  -0.12132  -0.11156  -0.07950  -0.07528
 Alpha virt. eigenvalues --   -0.06299  -0.05400  -0.04762  -0.04369  -0.03565
 Alpha virt. eigenvalues --   -0.02603  -0.01581  -0.00552  -0.00358   0.00877

 Mulliken charges:
               1
     1  N   -0.689591
     2  C   -0.056569
     3  C    0.587473
     4  O   -0.499283
     5  C   -0.410040
     6  C    0.171194
     7  C   -0.203355
     8  C   -0.159903
     9  C   -0.156597
    10  C   -0.196166
    11  C    0.355878
    12  O   -0.636493
    13  H    0.182917
    14  H    0.134822
    15  H    0.145673
    16  H    0.096456
    17  H    0.153483
    18  H    0.144426
    19  H    0.131750
    20  H    0.413905
    21  H    0.295766
    22  H    0.327924
    23  N   -0.684281
    24  C    0.010496
    25  C    0.592331
    26  O   -0.599262
    27  C   -0.101479
    28  C   -0.471924
    29  C   -0.456882
    30  H    0.350193
    31  H    0.181826
    32  H    0.209996
    33  H    0.174887
    34  H    0.125219
    35  H    0.168889
    36  H    0.157367
    37  H    0.172227
    38  H    0.125822
    39  N   -0.558965
    40  C   -0.089901
    41  C    0.603741
    42  O   -0.429480
    43  C   -0.271615
    44  C   -0.331381
    45  C   -0.146387
    46  N   -0.644993
    47  C    0.806308
    48  N   -0.763760
    49  N   -0.780504
    50  O   -0.578454
    51  H    0.441330
    52  H    0.373123
    53  H    0.197571
    54  H    0.172113
    55  H    0.193584
    56  H    0.179679
    57  H    0.189187
    58  H    0.186051
    59  H    0.177735
    60  H    0.432716
    61  H    0.382341
    62  H    0.387522
    63  H    0.371045
    64  H    0.412297
 Sum of Mulliken charges =   1.00000

 Dipole moment (field-independent basis, Debye):
    X=            180.8593    Y=           -152.1331    Z=            211.1029  Tot=            316.8896
 Quadrupole moment (field-independent basis, Debye-Ang):
   XX=           6684.6635   YY=           4646.3088   ZZ=           9131.7306
   XY=          -5747.2609   XZ=           7984.9890   YZ=          -6683.1310

 Normal termination of Gaussian 16 at Tue May 31 11:31:53 2022.
