 Gaussian 16, Revision C.01,
 Gaussian 16:  ES64L-G16RevC.01  3-Jul-2019

 ----------------------------------------------------------------------
 # B3LYP/6-31G* empiricaldispersion=gd3 guess=read geom=check nosymm in
 tegral(ultrafinegrid)
 ----------------------------------------------------------------------

 ------------------------------------------------------
 Candidate Structure: Conf:898 Charge calc in gas phase
 ------------------------------------------------------
 Structure from the checkpoint file:  "conf-898.chk"
 Charge =  1 Multiplicity = 1

                          Input orientation:
 ---------------------------------------------------------------------
 Center     Atomic      Atomic             Coordinates (Angstroms)
 Number     Number       Type             X           Y           Z
 ---------------------------------------------------------------------
      1          7           0       -9.109804   -2.637504   -9.947480
      2          6           0       -8.891771   -3.865367   -9.106003
      3          6           0       -8.538204   -3.568974   -7.636902
      4          8           0       -9.133493   -4.146690   -6.737116
      5          6           0       -7.787158   -4.709396   -9.750604
      6          6           0       -8.152736   -5.154219  -11.164256
      7          7           0       -7.386099   -6.144604  -11.666073
      8          8           0       -9.069329   -4.623918  -11.800119
      9          1           0       -9.404530   -2.994561  -10.874983
     10          1           0       -9.837501   -4.408573   -9.089218
     11          1           0       -6.857751   -4.131397   -9.802223
     12          1           0       -7.573756   -5.571893   -9.111900
     13          1           0       -7.527018   -6.431347  -12.625767
     14          1           0       -6.595162   -6.511972  -11.154635
     15          1           0       -9.796842   -1.999263   -9.513280
     16          1           0       -8.209902   -2.079661  -10.052909
     17          7           0       -7.502751   -2.707378   -7.421976
     18          6           0       -6.721367   -2.771997   -6.190586
     19          6           0       -6.883127   -1.599904   -5.203767
     20          8           0       -5.995659   -1.395453   -4.368789
     21          6           0       -5.219707   -2.897382   -6.563518
     22          6           0       -4.943155   -4.009363   -7.552553
     23          6           0       -5.161145   -5.351174   -7.208412
     24          6           0       -4.475497   -3.706114   -8.838510
     25          6           0       -4.910058   -6.371421   -8.126849
     26          6           0       -4.214762   -4.726928   -9.757695
     27          6           0       -4.429806   -6.061449   -9.404426
     28          1           0       -7.010687   -2.351602   -8.244524
     29          1           0       -7.050120   -3.667254   -5.649887
     30          1           0       -4.899225   -1.943040   -6.998723
     31          1           0       -4.657910   -3.040663   -5.637051
     32          1           0       -5.521076   -5.602098   -6.213060
     33          1           0       -4.345690   -2.667137   -9.129778
     34          1           0       -5.070290   -7.407157   -7.840284
     35          1           0       -3.841863   -4.475998  -10.746840
     36          1           0       -4.198067   -6.858438  -10.107500
     37          7           0       -7.955335   -0.756869   -5.240483
     38          6           0       -9.230203   -0.822497   -5.947703
     39          6           0       -9.159052   -0.395199   -7.424404
     40          8           0      -10.062476   -0.744733   -8.194251
     41          6           0      -10.274748    0.066040   -5.232158
     42          6           0       -9.883399    1.543468   -5.237551
     43          7           0      -10.823439    2.414969   -5.649310
     44          8           0       -8.755108    1.913305   -4.883021
     45          1           0       -7.875104    0.002316   -4.571581
     46          1           0       -9.607554   -1.847918   -5.948627
     47          1           0      -10.366511   -0.255516   -4.188117
     48          1           0      -11.239135   -0.097969   -5.719861
     49          1           0      -10.621484    3.406019   -5.611490
     50          1           0      -11.749682    2.125507   -5.928381
     51          7           0       -8.119640    0.393078   -7.757185
     52          6           0       -7.698375    0.663107   -9.138934
     53          6           0       -6.462483   -0.267432   -9.362380
     54          8           0       -5.342986    0.079367   -8.913085
     55          6           0       -7.578834    2.169815   -9.438467
     56          6           0       -6.473663    3.037915   -8.804737
     57          6           0       -6.356002    3.008357   -7.272510
     58          7           0       -5.579548    1.820293   -6.895230
     59          6           0       -5.253958    1.425848   -5.670769
     60          7           0       -5.851420    1.943024   -4.583743
     61          7           0       -4.267657    0.513432   -5.507145
     62          8           0       -6.715989   -1.404508   -9.870142
     63          1           0       -7.429691    0.542682   -7.032293
     64          1           0       -8.511585    0.291835   -9.764416
     65          1           0       -7.482829    2.268652  -10.526625
     66          1           0       -8.554239    2.600350   -9.175767
     67          1           0       -5.498923    2.783055   -9.234781
     68          1           0       -6.677769    4.072738   -9.100564
     69          1           0       -5.829644    3.898659   -6.910236
     70          1           0       -7.347172    2.988284   -6.801893
     71          1           0       -5.300985    1.203864   -7.690722
     72          1           0       -5.549531    1.612156   -3.677133
     73          1           0       -6.811995    2.270911   -4.649809
     74          1           0       -4.457629   -0.229527   -4.835021
     75          1           0       -3.786321    0.213293   -6.346497
 ---------------------------------------------------------------------

 SCF Done:  E(RB3LYP) =  -1917.54256948     A.U. after    1 cycles

 Alpha  occ. eigenvalues --  -19.24965 -19.23690 -19.23114 -19.22862 -19.22310
 Alpha  occ. eigenvalues --  -19.21329 -19.21277 -14.51597 -14.48778 -14.48678
 Alpha  occ. eigenvalues --  -14.48084 -14.47846 -14.47710 -14.47617 -14.46424
 Alpha  occ. eigenvalues --  -14.45831 -10.44801 -10.42554 -10.40751 -10.40746
 Alpha  occ. eigenvalues --  -10.40041 -10.39877 -10.39192 -10.35987 -10.35826
 Alpha  occ. eigenvalues --  -10.34501 -10.33761 -10.33443 -10.32600 -10.30647
 Alpha  occ. eigenvalues --  -10.29408 -10.29342 -10.29231 -10.28873 -10.28071
 Alpha  occ. eigenvalues --  -10.28001 -10.27903 -10.27858 -10.27406  -1.16560
 Alpha  occ. eigenvalues --   -1.15744  -1.15101  -1.14758  -1.14433  -1.13914
 Alpha  occ. eigenvalues --   -1.13453  -1.07800  -1.05561  -1.05257  -1.03607
 Alpha  occ. eigenvalues --   -1.03520  -1.02996  -1.02644  -1.01553  -1.00845
 Alpha  occ. eigenvalues --   -0.94543  -0.90910  -0.90083  -0.89743  -0.87969
 Alpha  occ. eigenvalues --   -0.85331  -0.83485  -0.83196  -0.80474  -0.78874
 Alpha  occ. eigenvalues --   -0.78201  -0.76070  -0.75144  -0.72316  -0.71530
 Alpha  occ. eigenvalues --   -0.70974  -0.70311  -0.69987  -0.69660  -0.69394
 Alpha  occ. eigenvalues --   -0.68738  -0.68296  -0.67005  -0.66724  -0.66610
 Alpha  occ. eigenvalues --   -0.66186  -0.65159  -0.63642  -0.63578  -0.62537
 Alpha  occ. eigenvalues --   -0.62490  -0.61677  -0.60890  -0.60844  -0.59826
 Alpha  occ. eigenvalues --   -0.58836  -0.58613  -0.58185  -0.57827  -0.57387
 Alpha  occ. eigenvalues --   -0.56398  -0.56317  -0.55863  -0.55265  -0.54657
 Alpha  occ. eigenvalues --   -0.54385  -0.54236  -0.53728  -0.53469  -0.53039
 Alpha  occ. eigenvalues --   -0.52587  -0.52450  -0.52107  -0.51600  -0.51346
 Alpha  occ. eigenvalues --   -0.50956  -0.50719  -0.50649  -0.50191  -0.49745
 Alpha  occ. eigenvalues --   -0.49630  -0.49244  -0.48751  -0.48459  -0.47966
 Alpha  occ. eigenvalues --   -0.47512  -0.46680  -0.45929  -0.45302  -0.45154
 Alpha  occ. eigenvalues --   -0.44311  -0.44062  -0.42945  -0.42640  -0.40883
 Alpha  occ. eigenvalues --   -0.40089  -0.39679  -0.39203  -0.38948  -0.38752
 Alpha  occ. eigenvalues --   -0.38091  -0.37438  -0.37097  -0.36653  -0.36007
 Alpha  occ. eigenvalues --   -0.35857  -0.35399  -0.35254  -0.34357  -0.33780
 Alpha  occ. eigenvalues --   -0.33471
 Alpha virt. eigenvalues --   -0.11169  -0.11036  -0.10807  -0.10255  -0.09940
 Alpha virt. eigenvalues --   -0.09121  -0.08954  -0.07431  -0.06388  -0.04495
 Alpha virt. eigenvalues --   -0.03495  -0.01733  -0.01229  -0.00929  -0.00388

 Mulliken charges:
               1
     1  N   -0.816575
     2  C   -0.110692
     3  C    0.616533
     4  O   -0.503200
     5  C   -0.418569
     6  C    0.632534
     7  N   -0.741505
     8  O   -0.533980
     9  H    0.418682
    10  H    0.217817
    11  H    0.230725
    12  H    0.207454
    13  H    0.364717
    14  H    0.358320
    15  H    0.430976
    16  H    0.430725
    17  N   -0.675004
    18  C   -0.059214
    19  C    0.637441
    20  O   -0.553130
    21  C   -0.401707
    22  C    0.164827
    23  C   -0.180855
    24  C   -0.203580
    25  C   -0.139689
    26  C   -0.139056
    27  C   -0.158858
    28  H    0.404826
    29  H    0.217514
    30  H    0.154140
    31  H    0.194327
    32  H    0.145122
    33  H    0.175559
    34  H    0.154251
    35  H    0.154256
    36  H    0.146192
    37  N   -0.647818
    38  C   -0.045850
    39  C    0.639172
    40  O   -0.587455
    41  C   -0.398512
    42  C    0.621209
    43  N   -0.723465
    44  O   -0.558354
    45  H    0.359190
    46  H    0.223254
    47  H    0.215153
    48  H    0.194484
    49  H    0.365194
    50  H    0.369356
    51  N   -0.609945
    52  C   -0.066229
    53  C    0.620178
    54  O   -0.571457
    55  C   -0.272921
    56  C   -0.314262
    57  C   -0.148424
    58  N   -0.648646
    59  C    0.716013
    60  N   -0.752127
    61  N   -0.752564
    62  O   -0.597578
    63  H    0.369062
    64  H    0.165800
    65  H    0.172548
    66  H    0.153099
    67  H    0.183205
    68  H    0.171951
    69  H    0.189118
    70  H    0.172976
    71  H    0.418747
    72  H    0.372918
    73  H    0.410288
    74  H    0.398711
    75  H    0.372660
 Sum of Mulliken charges =   1.00000

 Dipole moment (field-independent basis, Debye):
    X=            -37.2277    Y=             -2.1964    Z=            -35.4264  Tot=             51.4369
 Quadrupole moment (field-independent basis, Debye-Ang):
   XX=             91.7539   YY=           -145.6421   ZZ=             66.3589
   XY=             -7.1132   XZ=            267.3098   YZ=             53.0923

 Normal termination of Gaussian 16 at Fri Jun  3 06:00:33 2022.
