 Gaussian 16, Revision C.01,
 Gaussian 16:  ES64L-G16RevC.01  3-Jul-2019

 ----------------------------------------------------------------------
 # B3LYP/6-31G* empiricaldispersion=gd3 guess=read geom=check nosymm in
 tegral(ultrafinegrid)
 ----------------------------------------------------------------------

 ------------------------------------------------------
 Candidate Structure: Conf:684 Charge calc in gas phase
 ------------------------------------------------------
 Structure from the checkpoint file:  "conf-684.chk"
 Charge =  1 Multiplicity = 1

                          Input orientation:
 ---------------------------------------------------------------------
 Center     Atomic      Atomic             Coordinates (Angstroms)
 Number     Number       Type             X           Y           Z
 ---------------------------------------------------------------------
      1          7           0       -9.896674    0.840102   -6.493458
      2          6           0       -9.722765   -0.584057   -6.034263
      3          6           0       -8.323233   -0.706496   -5.400526
      4          8           0       -7.984739    0.091214   -4.534853
      5          6           0      -10.097862   -1.560455   -7.146336
      6          6           0      -11.461068   -1.200163   -7.750357
      7          7           0      -11.681407   -1.709514   -8.986162
      8          8           0      -12.275595   -0.552086   -7.093471
      9          1           0       -9.385172    1.469342   -5.864678
     10          1           0      -10.427996   -0.704517   -5.207288
     11          1           0       -9.342063   -1.603445   -7.931870
     12          1           0      -10.183318   -2.562717   -6.709606
     13          1           0      -12.530697   -1.379972   -9.431451
     14          1           0      -10.863803   -1.770562   -9.595801
     15          1           0       -9.545589    0.966736   -7.479032
     16          1           0      -10.905483    1.037937   -6.509077
     17          7           0       -7.552248   -1.734049   -5.836631
     18          6           0       -6.342399   -2.185744   -5.158553
     19          6           0       -5.211435   -2.295089   -6.194627
     20          8           0       -4.675300   -3.382653   -6.445135
     21          6           0       -6.576507   -3.519921   -4.398220
     22          6           0       -7.280565   -4.590146   -5.209463
     23          6           0       -8.677454   -4.568245   -5.339643
     24          6           0       -6.568473   -5.603568   -5.870468
     25          6           0       -9.344505   -5.492634   -6.148744
     26          6           0       -7.232511   -6.538381   -6.670556
     27          6           0       -8.621166   -6.475555   -6.826828
     28          1           0       -7.891477   -2.337181   -6.573504
     29          1           0       -6.090470   -1.409959   -4.428889
     30          1           0       -5.607363   -3.880046   -4.042706
     31          1           0       -7.179952   -3.273592   -3.517732
     32          1           0       -9.250802   -3.826718   -4.788301
     33          1           0       -5.490205   -5.645644   -5.766376
     34          1           0      -10.427309   -5.456289   -6.232351
     35          1           0       -6.664693   -7.321309   -7.165890
     36          1           0       -9.135318   -7.202204   -7.449031
     37          7           0       -4.836835   -1.178226   -6.862473
     38          6           0       -5.283495    0.202866   -6.717060
     39          6           0       -6.457729    0.626042   -7.630403
     40          8           0       -7.290130    1.425975   -7.202725
     41          6           0       -4.089570    1.154778   -6.955116
     42          6           0       -3.449243    1.010481   -8.341094
     43          7           0       -2.781046    2.089422   -8.791677
     44          8           0       -3.517150   -0.037471   -9.002246
     45          1           0       -4.125922   -1.318638   -7.574653
     46          1           0       -5.654164    0.371231   -5.703881
     47          1           0       -3.313556    0.944955   -6.207776
     48          1           0       -4.427899    2.183437   -6.792242
     49          1           0       -2.271553    2.016866   -9.663194
     50          1           0       -2.697971    2.943131   -8.258118
     51          7           0       -6.468121    0.132530   -8.888451
     52          6           0       -7.392803    0.660114   -9.907573
     53          6           0       -8.772261   -0.045235   -9.751476
     54          8           0       -8.900305   -1.255505  -10.142601
     55          6           0       -6.743927    0.666118  -11.306292
     56          6           0       -6.554343   -0.634831  -12.112198
     57          6           0       -5.719123   -1.743735  -11.453258
     58          7           0       -6.551473   -2.438164  -10.466947
     59          6           0       -6.125331   -3.149918   -9.438612
     60          7           0       -4.832491   -3.462989   -9.246547
     61          7           0       -7.041715   -3.571249   -8.519348
     62          8           0       -9.663649    0.610561   -9.170153
     63          1           0       -5.643879   -0.371028   -9.185231
     64          1           0       -7.579474    1.701470   -9.633700
     65          1           0       -7.352408    1.336009  -11.924648
     66          1           0       -5.767428    1.158748  -11.196273
     67          1           0       -7.528984   -1.050009  -12.390017
     68          1           0       -6.054941   -0.360966  -13.047979
     69          1           0       -5.382834   -2.461436  -12.210695
     70          1           0       -4.822216   -1.314372  -10.980790
     71          1           0       -7.541315   -2.081184  -10.410003
     72          1           0       -4.538358   -3.696714   -8.291868
     73          1           0       -4.136712   -3.022427   -9.832482
     74          1           0       -6.788906   -4.351278   -7.917292
     75          1           0       -8.005452   -3.583869   -8.831457
 ---------------------------------------------------------------------

 SCF Done:  E(RB3LYP) =  -1917.53719942     A.U. after    1 cycles

 Alpha  occ. eigenvalues --  -19.25085 -19.24110 -19.23566 -19.22771 -19.21203
 Alpha  occ. eigenvalues --  -19.20833 -19.19832 -14.53365 -14.48986 -14.48909
 Alpha  occ. eigenvalues --  -14.48779 -14.48430 -14.47965 -14.47934 -14.46982
 Alpha  occ. eigenvalues --  -14.42909 -10.45279 -10.42751 -10.41345 -10.41214
 Alpha  occ. eigenvalues --  -10.39932 -10.38374 -10.38257 -10.36783 -10.35977
 Alpha  occ. eigenvalues --  -10.35360 -10.34398 -10.32936 -10.32599 -10.30703
 Alpha  occ. eigenvalues --  -10.29934 -10.29738 -10.29625 -10.29530 -10.29125
 Alpha  occ. eigenvalues --  -10.29048 -10.28944 -10.28833 -10.28625  -1.16713
 Alpha  occ. eigenvalues --   -1.16203  -1.15663  -1.14815  -1.14080  -1.13482
 Alpha  occ. eigenvalues --   -1.12475  -1.08469  -1.05582  -1.04897  -1.04526
 Alpha  occ. eigenvalues --   -1.03547  -1.03217  -1.02718  -1.02243  -0.98669
 Alpha  occ. eigenvalues --   -0.95622  -0.91261  -0.90674  -0.89973  -0.88320
 Alpha  occ. eigenvalues --   -0.85201  -0.84410  -0.84316  -0.80688  -0.79448
 Alpha  occ. eigenvalues --   -0.78170  -0.77084  -0.75165  -0.72250  -0.71837
 Alpha  occ. eigenvalues --   -0.71714  -0.70929  -0.70362  -0.70305  -0.69742
 Alpha  occ. eigenvalues --   -0.68973  -0.67978  -0.67500  -0.67270  -0.66531
 Alpha  occ. eigenvalues --   -0.65904  -0.65052  -0.63994  -0.63026  -0.61909
 Alpha  occ. eigenvalues --   -0.61653  -0.61562  -0.61255  -0.60481  -0.59956
 Alpha  occ. eigenvalues --   -0.59453  -0.58844  -0.58350  -0.58061  -0.57600
 Alpha  occ. eigenvalues --   -0.57079  -0.56582  -0.55655  -0.55320  -0.55060
 Alpha  occ. eigenvalues --   -0.54900  -0.54478  -0.54151  -0.53675  -0.53540
 Alpha  occ. eigenvalues --   -0.53083  -0.52864  -0.52396  -0.51977  -0.51761
 Alpha  occ. eigenvalues --   -0.51471  -0.50851  -0.50503  -0.50377  -0.50156
 Alpha  occ. eigenvalues --   -0.49358  -0.49241  -0.49019  -0.48364  -0.47897
 Alpha  occ. eigenvalues --   -0.47456  -0.47067  -0.46043  -0.45642  -0.45356
 Alpha  occ. eigenvalues --   -0.45085  -0.44108  -0.43791  -0.43602  -0.41392
 Alpha  occ. eigenvalues --   -0.40236  -0.39974  -0.39063  -0.38900  -0.38570
 Alpha  occ. eigenvalues --   -0.38276  -0.37792  -0.37012  -0.36561  -0.36066
 Alpha  occ. eigenvalues --   -0.35452  -0.35106  -0.34634  -0.34326  -0.34217
 Alpha  occ. eigenvalues --   -0.33104
 Alpha virt. eigenvalues --   -0.11665  -0.11122  -0.10837  -0.10592  -0.10296
 Alpha virt. eigenvalues --   -0.09981  -0.09044  -0.07163  -0.06521  -0.05077
 Alpha virt. eigenvalues --   -0.03855  -0.02844  -0.02530  -0.00860  -0.00814

 Mulliken charges:
               1
     1  N   -0.760780
     2  C   -0.091524
     3  C    0.634166
     4  O   -0.519780
     5  C   -0.442872
     6  C    0.624746
     7  N   -0.747792
     8  O   -0.529728
     9  H    0.413243
    10  H    0.229940
    11  H    0.189257
    12  H    0.193919
    13  H    0.348298
    14  H    0.371920
    15  H    0.457308
    16  H    0.417413
    17  N   -0.629021
    18  C   -0.083908
    19  C    0.635408
    20  O   -0.551693
    21  C   -0.345504
    22  C    0.148013
    23  C   -0.203445
    24  C   -0.202512
    25  C   -0.138581
    26  C   -0.154036
    27  C   -0.135468
    28  H    0.387611
    29  H    0.211506
    30  H    0.185612
    31  H    0.175800
    32  H    0.137614
    33  H    0.167892
    34  H    0.158429
    35  H    0.158717
    36  H    0.159830
    37  N   -0.612289
    38  C   -0.080998
    39  C    0.629417
    40  O   -0.555829
    41  C   -0.394857
    42  C    0.618216
    43  N   -0.724913
    44  O   -0.556465
    45  H    0.362064
    46  H    0.211890
    47  H    0.213850
    48  H    0.201003
    49  H    0.367781
    50  H    0.367961
    51  N   -0.636604
    52  C   -0.043373
    53  C    0.634146
    54  O   -0.623528
    55  C   -0.309626
    56  C   -0.306292
    57  C   -0.176943
    58  N   -0.625049
    59  C    0.740761
    60  N   -0.769379
    61  N   -0.805688
    62  O   -0.572947
    63  H    0.370312
    64  H    0.187287
    65  H    0.181509
    66  H    0.151155
    67  H    0.186627
    68  H    0.171626
    69  H    0.189215
    70  H    0.171531
    71  H    0.426652
    72  H    0.404839
    73  H    0.371750
    74  H    0.390293
    75  H    0.374893
 Sum of Mulliken charges =   1.00000

 Dipole moment (field-independent basis, Debye):
    X=            -27.1943    Y=             -5.3327    Z=            -40.0119  Tot=             48.6716
 Quadrupole moment (field-independent basis, Debye-Ang):
   XX=            -41.7361   YY=           -172.5603   ZZ=            135.0780
   XY=             56.2116   XZ=            217.5965   YZ=             42.9568

 Normal termination of Gaussian 16 at Fri Jun  3 06:00:34 2022.
