 Gaussian 16, Revision C.01,
 Gaussian 16:  ES64L-G16RevC.01  3-Jul-2019

 ----------------------------------------------------------------------
 # B3LYP/6-31G* empiricaldispersion=gd3 guess=read geom=check nosymm in
 tegral(ultrafinegrid)
 ----------------------------------------------------------------------

 ------------------------------------------------------
 Candidate Structure: Conf:841 Charge calc in gas phase
 ------------------------------------------------------
 Structure from the checkpoint file:  "conf-841.chk"
 Charge =  1 Multiplicity = 1

                          Input orientation:
 ---------------------------------------------------------------------
 Center     Atomic      Atomic             Coordinates (Angstroms)
 Number     Number       Type             X           Y           Z
 ---------------------------------------------------------------------
      1          7           0       -9.606720   -3.479918   -7.128220
      2          6           0       -9.424706   -3.626850   -8.612957
      3          6           0       -8.048420   -3.164426   -9.121384
      4          8           0       -7.377324   -3.912435   -9.821815
      5          6           0      -10.540339   -2.861812   -9.329864
      6          6           0      -11.921610   -3.414955   -8.995168
      7          7           0      -12.887081   -3.113304   -9.888420
      8          8           0      -12.133050   -4.068753   -7.968619
      9          1           0      -10.541393   -3.878361   -6.924889
     10          1           0       -9.482968   -4.693533   -8.833875
     11          1           0      -10.513242   -1.803785   -9.043971
     12          1           0      -10.355030   -2.891577  -10.407094
     13          1           0      -13.838391   -3.399062   -9.698172
     14          1           0      -12.691064   -2.566328  -10.715754
     15          1           0       -8.834592   -3.945173   -6.623999
     16          1           0       -9.585278   -2.452224   -6.838739
     17          7           0       -7.683030   -1.889706   -8.808158
     18          6           0       -6.678541   -1.193721   -9.602384
     19          6           0       -5.518282   -0.657148   -8.750582
     20          8           0       -5.175095    0.524856   -8.872135
     21          6           0       -7.334231   -0.032038  -10.382454
     22          6           0       -8.582873   -0.445521  -11.134715
     23          6           0       -8.554182   -1.459235  -12.105206
     24          6           0       -9.802663    0.191306  -10.872008
     25          6           0       -9.710694   -1.819188  -12.798420
     26          6           0      -10.963209   -0.159415  -11.568454
     27          6           0      -10.920928   -1.166436  -12.535626
     28          1           0       -8.345103   -1.299231   -8.299164
     29          1           0       -6.264833   -1.940499  -10.288852
     30          1           0       -7.572558    0.759486   -9.665143
     31          1           0       -6.587676    0.387244  -11.065150
     32          1           0       -7.622301   -1.975358  -12.321113
     33          1           0       -9.843571    0.973108  -10.117569
     34          1           0       -9.665612   -2.600472  -13.552000
     35          1           0      -11.893020    0.364361  -11.362409
     36          1           0      -11.813660   -1.425861  -13.099731
     37          7           0       -4.831175   -1.485600   -7.914229
     38          6           0       -5.135741   -2.842687   -7.468820
     39          6           0       -6.254484   -2.900292   -6.401833
     40          8           0       -6.996230   -3.887389   -6.357397
     41          6           0       -3.857362   -3.529877   -6.946438
     42          6           0       -3.243893   -2.830053   -5.732024
     43          7           0       -2.715150   -3.641277   -4.791532
     44          8           0       -3.212179   -1.596971   -5.626616
     45          1           0       -4.085049   -1.035641   -7.389338
     46          1           0       -5.513533   -3.433303   -8.306996
     47          1           0       -3.104842   -3.533681   -7.744717
     48          1           0       -4.102698   -4.572175   -6.720941
     49          1           0       -2.246372   -3.227640   -3.996571
     50          1           0       -2.738513   -4.648107   -4.861961
     51          7           0       -6.339709   -1.837034   -5.566567
     52          6           0       -7.636000   -1.391072   -5.030227
     53          6           0       -8.224131   -0.460989   -6.134455
     54          8           0       -7.541036    0.536185   -6.469244
     55          6           0       -7.555138   -0.778226   -3.624442
     56          6           0       -6.992873    0.641793   -3.444665
     57          6           0       -5.491032    0.830488   -3.693831
     58          7           0       -5.178347    1.013045   -5.118114
     59          6           0       -3.959949    1.350256   -5.540160
     60          7           0       -2.951064    1.497582   -4.645012
     61          7           0       -3.723269    1.611789   -6.827801
     62          8           0       -9.287520   -0.850848   -6.712400
     63          1           0       -5.681327   -1.090927   -5.753913
     64          1           0       -8.247006   -2.290039   -4.947654
     65          1           0       -8.581733   -0.764338   -3.238523
     66          1           0       -6.994591   -1.477013   -2.989377
     67          1           0       -7.553001    1.358236   -4.053804
     68          1           0       -7.167274    0.919498   -2.399072
     69          1           0       -5.154021    1.720680   -3.147704
     70          1           0       -4.937326   -0.038799   -3.308761
     71          1           0       -5.991810    1.001871   -5.768401
     72          1           0       -2.003876    1.480055   -4.996741
     73          1           0       -3.055662    1.080471   -3.732186
     74          1           0       -2.784611    1.840270   -7.122252
     75          1           0       -4.376975    1.331338   -7.580281
 ---------------------------------------------------------------------

 SCF Done:  E(RB3LYP) =  -1917.53627234     A.U. after    1 cycles

 Alpha  occ. eigenvalues --  -19.23904 -19.22911 -19.22813 -19.21772 -19.21665
 Alpha  occ. eigenvalues --  -19.20148 -19.19804 -14.50741 -14.49335 -14.47942
 Alpha  occ. eigenvalues --  -14.47892 -14.47453 -14.46555 -14.46104 -14.45323
 Alpha  occ. eigenvalues --  -14.45290 -10.44958 -10.41572 -10.39945 -10.39738
 Alpha  occ. eigenvalues --  -10.39218 -10.39036 -10.37741 -10.35081 -10.34817
 Alpha  occ. eigenvalues --  -10.34033 -10.33083 -10.32386 -10.31845 -10.29880
 Alpha  occ. eigenvalues --  -10.29078 -10.28822 -10.28043 -10.27374 -10.27354
 Alpha  occ. eigenvalues --  -10.27305 -10.27262 -10.27048 -10.26946  -1.15567
 Alpha  occ. eigenvalues --   -1.14862  -1.14363  -1.13743  -1.13527  -1.13216
 Alpha  occ. eigenvalues --   -1.13043  -1.06929  -1.04463  -1.04042  -1.02768
 Alpha  occ. eigenvalues --   -1.02589  -1.02427  -1.01735  -1.01591  -1.00250
 Alpha  occ. eigenvalues --   -0.93748  -0.90262  -0.89450  -0.88960  -0.86874
 Alpha  occ. eigenvalues --   -0.84637  -0.82697  -0.82495  -0.79716  -0.78012
 Alpha  occ. eigenvalues --   -0.77500  -0.75342  -0.75091  -0.71734  -0.71054
 Alpha  occ. eigenvalues --   -0.69994  -0.69801  -0.69263  -0.68908  -0.68469
 Alpha  occ. eigenvalues --   -0.67766  -0.67454  -0.67133  -0.65955  -0.65850
 Alpha  occ. eigenvalues --   -0.65318  -0.64282  -0.62966  -0.62810  -0.62201
 Alpha  occ. eigenvalues --   -0.61218  -0.61110  -0.59928  -0.59794  -0.58725
 Alpha  occ. eigenvalues --   -0.58626  -0.58052  -0.57483  -0.57030  -0.56786
 Alpha  occ. eigenvalues --   -0.56229  -0.55425  -0.55148  -0.54605  -0.54323
 Alpha  occ. eigenvalues --   -0.53821  -0.53496  -0.53006  -0.52982  -0.52355
 Alpha  occ. eigenvalues --   -0.51539  -0.51444  -0.51134  -0.50965  -0.50221
 Alpha  occ. eigenvalues --   -0.50060  -0.50036  -0.49731  -0.49609  -0.49452
 Alpha  occ. eigenvalues --   -0.48716  -0.48287  -0.48016  -0.47288  -0.46742
 Alpha  occ. eigenvalues --   -0.46674  -0.45644  -0.45120  -0.44882  -0.44385
 Alpha  occ. eigenvalues --   -0.43717  -0.43434  -0.42050  -0.41780  -0.40529
 Alpha  occ. eigenvalues --   -0.39280  -0.39006  -0.38393  -0.37931  -0.37756
 Alpha  occ. eigenvalues --   -0.37267  -0.36569  -0.36302  -0.35572  -0.35200
 Alpha  occ. eigenvalues --   -0.34896  -0.34540  -0.34128  -0.33261  -0.32962
 Alpha  occ. eigenvalues --   -0.32748
 Alpha virt. eigenvalues --   -0.10503  -0.09834  -0.09490  -0.09245  -0.08973
 Alpha virt. eigenvalues --   -0.08712  -0.08336  -0.06582  -0.05354  -0.05143
 Alpha virt. eigenvalues --   -0.03350  -0.02324  -0.01050  -0.00603   0.00160

 Mulliken charges:
               1
     1  N   -0.814679
     2  C   -0.109653
     3  C    0.639152
     4  O   -0.517185
     5  C   -0.418372
     6  C    0.635136
     7  N   -0.742814
     8  O   -0.535399
     9  H    0.415805
    10  H    0.214785
    11  H    0.220968
    12  H    0.211914
    13  H    0.363468
    14  H    0.357711
    15  H    0.428542
    16  H    0.430627
    17  N   -0.651397
    18  C   -0.082538
    19  C    0.663281
    20  O   -0.548041
    21  C   -0.370534
    22  C    0.168333
    23  C   -0.179564
    24  C   -0.200691
    25  C   -0.138968
    26  C   -0.136528
    27  C   -0.160599
    28  H    0.395018
    29  H    0.208607
    30  H    0.189588
    31  H    0.185131
    32  H    0.147787
    33  H    0.155080
    34  H    0.153772
    35  H    0.148962
    36  H    0.145851
    37  N   -0.644750
    38  C   -0.072557
    39  C    0.638969
    40  O   -0.573980
    41  C   -0.391865
    42  C    0.616890
    43  N   -0.727928
    44  O   -0.558576
    45  H    0.363506
    46  H    0.222482
    47  H    0.211371
    48  H    0.190838
    49  H    0.356604
    50  H    0.365411
    51  N   -0.599305
    52  C   -0.069402
    53  C    0.631399
    54  O   -0.572291
    55  C   -0.288177
    56  C   -0.308997
    57  C   -0.159027
    58  N   -0.657755
    59  C    0.806222
    60  N   -0.747607
    61  N   -0.794894
    62  O   -0.613996
    63  H    0.369471
    64  H    0.150596
    65  H    0.173194
    66  H    0.155228
    67  H    0.191353
    68  H    0.169411
    69  H    0.181395
    70  H    0.165161
    71  H    0.423877
    72  H    0.363715
    73  H    0.373156
    74  H    0.356852
    75  H    0.431450
 Sum of Mulliken charges =   1.00000

 Dipole moment (field-independent basis, Debye):
    X=            -27.1577    Y=             -7.2801    Z=            -30.7026  Tot=             41.6317
 Quadrupole moment (field-independent basis, Debye-Ang):
   XX=             23.1285   YY=           -196.4591   ZZ=             25.4979
   XY=             54.9304   XZ=            225.5320   YZ=             56.5089

 Normal termination of Gaussian 16 at Fri Jun  3 06:00:34 2022.
