 Gaussian 16, Revision C.01,
 Gaussian 16:  ES64L-G16RevC.01  3-Jul-2019

 ----------------------------------------------------------------------
 # B3LYP/6-31G* empiricaldispersion=gd3 guess=read geom=check nosymm in
 tegral(ultrafinegrid)
 ----------------------------------------------------------------------

 ------------------------------------------------------
 Candidate Structure: Conf:617 Charge calc in gas phase
 ------------------------------------------------------
 Structure from the checkpoint file:  "conf-617.chk"
 Charge =  1 Multiplicity = 1

                          Input orientation:
 ---------------------------------------------------------------------
 Center     Atomic      Atomic             Coordinates (Angstroms)
 Number     Number       Type             X           Y           Z
 ---------------------------------------------------------------------
      1          7           0       -9.273004    1.001368   -5.649195
      2          6           0       -9.825108   -0.398546   -5.562612
      3          6           0       -8.716160   -1.440288   -5.275710
      4          8           0       -8.457937   -1.692663   -4.103474
      5          6           0      -10.723204   -0.656928   -6.774969
      6          6           0      -11.903323    0.320498   -6.782565
      7          7           0      -12.919105    0.007492   -7.616688
      8          8           0      -11.918333    1.329131   -6.073565
      9          1           0       -8.925177    1.200859   -6.626242
     10          1           0      -10.426880   -0.414207   -4.652157
     11          1           0      -10.159540   -0.524636   -7.707358
     12          1           0      -11.087798   -1.688997   -6.732924
     13          1           0      -13.693620    0.653077   -7.696615
     14          1           0      -12.898985   -0.799649   -8.221892
     15          1           0      -10.071502    1.631109   -5.473700
     16          1           0       -8.480965    1.135694   -5.010758
     17          7           0       -8.138067   -2.076718   -6.329392
     18          6           0       -7.331256   -3.274411   -6.102898
     19          6           0       -5.973893   -3.211916   -6.818388
     20          8           0       -5.706165   -3.971503   -7.754789
     21          6           0       -8.102184   -4.575720   -6.435733
     22          6           0       -8.508362   -4.832388   -7.875686
     23          6           0       -9.416492   -4.005885   -8.553516
     24          6           0       -8.018671   -5.961884   -8.548191
     25          6           0       -9.811474   -4.288795   -9.862261
     26          6           0       -8.426930   -6.264147   -9.848203
     27          6           0       -9.325094   -5.424210  -10.515395
     28          1           0       -8.207903   -1.707382   -7.283366
     29          1           0       -7.137577   -3.294805   -5.025807
     30          1           0       -7.490085   -5.412765   -6.084322
     31          1           0       -8.998560   -4.558348   -5.803212
     32          1           0       -9.828380   -3.136470   -8.054197
     33          1           0       -7.307328   -6.610725   -8.045321
     34          1           0      -10.513505   -3.630058  -10.366435
     35          1           0       -8.048201   -7.158059  -10.336630
     36          1           0       -9.658268   -5.663742  -11.521840
     37          7           0       -5.021045   -2.357122   -6.364792
     38          6           0       -5.146199   -1.235356   -5.441732
     39          6           0       -5.770876    0.014770   -6.098791
     40          8           0       -6.595438    0.687000   -5.470768
     41          6           0       -3.782230   -0.919102   -4.799634
     42          6           0       -2.685278   -0.564184   -5.809735
     43          7           0       -1.604707    0.060228   -5.295618
     44          8           0       -2.763261   -0.851084   -7.010312
     45          1           0       -4.175689   -2.356376   -6.930332
     46          1           0       -5.844719   -1.493231   -4.641334
     47          1           0       -3.446204   -1.796271   -4.232055
     48          1           0       -3.915773   -0.102223   -4.081596
     49          1           0       -0.821898    0.255130   -5.906071
     50          1           0       -1.517076    0.284272   -4.314948
     51          7           0       -5.403316    0.298928   -7.364374
     52          6           0       -6.228619    1.188459   -8.180521
     53          6           0       -7.589506    0.477814   -8.444863
     54          8           0       -7.559437   -0.757708   -8.737834
     55          6           0       -5.504555    1.691736   -9.443151
     56          6           0       -5.372375    0.771089  -10.672365
     57          6           0       -4.562169   -0.531155  -10.482624
     58          7           0       -5.400947   -1.670684  -10.106784
     59          6           0       -5.788086   -2.647172  -10.934409
     60          7           0       -5.537028   -2.607052  -12.261867
     61          7           0       -6.410022   -3.709462  -10.426353
     62          8           0       -8.630277    1.157992   -8.270851
     63          1           0       -4.663044   -0.256588   -7.771623
     64          1           0       -6.453703    2.062402   -7.566010
     65          1           0       -6.046842    2.585489   -9.770686
     66          1           0       -4.505836    2.031500   -9.137870
     67          1           0       -6.367650    0.511217  -11.053293
     68          1           0       -4.884330    1.367054  -11.452965
     69          1           0       -4.013710   -0.788582  -11.392522
     70          1           0       -3.792733   -0.406075   -9.710486
     71          1           0       -6.088736   -1.471726   -9.353094
     72          1           0       -5.614218   -3.443515  -12.820862
     73          1           0       -5.360305   -1.737807  -12.740324
     74          1           0       -7.041339   -4.277152  -10.974990
     75          1           0       -6.365271   -3.886632   -9.418248
 ---------------------------------------------------------------------

 SCF Done:  E(RB3LYP) =  -1917.52155538     A.U. after    1 cycles

 Alpha  occ. eigenvalues --  -19.23052 -19.22012 -19.21936 -19.21838 -19.21533
 Alpha  occ. eigenvalues --  -19.20148 -19.19297 -14.51476 -14.49052 -14.46835
 Alpha  occ. eigenvalues --  -14.46682 -14.46143 -14.45878 -14.45624 -14.45484
 Alpha  occ. eigenvalues --  -14.45454 -10.44015 -10.40764 -10.39556 -10.39355
 Alpha  occ. eigenvalues --  -10.39139 -10.38855 -10.37427 -10.35398 -10.34341
 Alpha  occ. eigenvalues --  -10.33369 -10.33088 -10.31645 -10.31320 -10.30427
 Alpha  occ. eigenvalues --  -10.29108 -10.28819 -10.28471 -10.28170 -10.27720
 Alpha  occ. eigenvalues --  -10.27584 -10.27524 -10.27440 -10.27145  -1.14844
 Alpha  occ. eigenvalues --   -1.14268  -1.13764  -1.13662  -1.13358  -1.12852
 Alpha  occ. eigenvalues --   -1.12387  -1.07163  -1.04235  -1.03263  -1.02251
 Alpha  occ. eigenvalues --   -1.01914  -1.01617  -1.01252  -1.00506  -1.00484
 Alpha  occ. eigenvalues --   -0.94081  -0.89785  -0.89310  -0.88609  -0.87164
 Alpha  occ. eigenvalues --   -0.83992  -0.82881  -0.82784  -0.79280  -0.78390
 Alpha  occ. eigenvalues --   -0.77185  -0.75392  -0.74523  -0.70622  -0.70322
 Alpha  occ. eigenvalues --   -0.70202  -0.69634  -0.69138  -0.68915  -0.68582
 Alpha  occ. eigenvalues --   -0.68308  -0.67081  -0.66889  -0.66035  -0.65679
 Alpha  occ. eigenvalues --   -0.64856  -0.63782  -0.63165  -0.62726  -0.62131
 Alpha  occ. eigenvalues --   -0.61031  -0.60933  -0.59755  -0.59572  -0.58796
 Alpha  occ. eigenvalues --   -0.57930  -0.57864  -0.57342  -0.56633  -0.56053
 Alpha  occ. eigenvalues --   -0.55459  -0.55112  -0.54891  -0.54125  -0.53977
 Alpha  occ. eigenvalues --   -0.53651  -0.53221  -0.53130  -0.52761  -0.51556
 Alpha  occ. eigenvalues --   -0.51146  -0.50905  -0.50799  -0.50664  -0.50511
 Alpha  occ. eigenvalues --   -0.50260  -0.49946  -0.49801  -0.49565  -0.48632
 Alpha  occ. eigenvalues --   -0.48394  -0.48082  -0.47654  -0.47016  -0.46713
 Alpha  occ. eigenvalues --   -0.46496  -0.46250  -0.45874  -0.44937  -0.44705
 Alpha  occ. eigenvalues --   -0.44127  -0.43140  -0.42409  -0.42288  -0.39416
 Alpha  occ. eigenvalues --   -0.38604  -0.38140  -0.37219  -0.36869  -0.36839
 Alpha  occ. eigenvalues --   -0.36738  -0.36306  -0.36134  -0.35984  -0.35011
 Alpha  occ. eigenvalues --   -0.34756  -0.34174  -0.34072  -0.33527  -0.32491
 Alpha  occ. eigenvalues --   -0.32343
 Alpha virt. eigenvalues --   -0.10109  -0.09762  -0.09180  -0.08984  -0.08718
 Alpha virt. eigenvalues --   -0.08611  -0.08000  -0.06940  -0.05979  -0.05084
 Alpha virt. eigenvalues --   -0.02329  -0.02306  -0.00921  -0.00200   0.00445

 Mulliken charges:
               1
     1  N   -0.781223
     2  C   -0.097080
     3  C    0.615034
     4  O   -0.510298
     5  C   -0.432593
     6  C    0.646029
     7  N   -0.741713
     8  O   -0.530338
     9  H    0.438962
    10  H    0.220874
    11  H    0.236695
    12  H    0.190939
    13  H    0.366401
    14  H    0.353696
    15  H    0.417553
    16  H    0.424747
    17  N   -0.654444
    18  C   -0.075320
    19  C    0.617434
    20  O   -0.544130
    21  C   -0.351985
    22  C    0.172753
    23  C   -0.177216
    24  C   -0.182047
    25  C   -0.124002
    26  C   -0.145499
    27  C   -0.172214
    28  H    0.410271
    29  H    0.207546
    30  H    0.169172
    31  H    0.170748
    32  H    0.125539
    33  H    0.148576
    34  H    0.136163
    35  H    0.149869
    36  H    0.145576
    37  N   -0.607507
    38  C   -0.082532
    39  C    0.645667
    40  O   -0.585051
    41  C   -0.394084
    42  C    0.618119
    43  N   -0.730000
    44  O   -0.543375
    45  H    0.366039
    46  H    0.211668
    47  H    0.209911
    48  H    0.196412
    49  H    0.365019
    50  H    0.362168
    51  N   -0.615465
    52  C   -0.034301
    53  C    0.610935
    54  O   -0.613580
    55  C   -0.311214
    56  C   -0.284652
    57  C   -0.196072
    58  N   -0.610290
    59  C    0.777319
    60  N   -0.761886
    61  N   -0.799051
    62  O   -0.583213
    63  H    0.374114
    64  H    0.178401
    65  H    0.180303
    66  H    0.162650
    67  H    0.166359
    68  H    0.163273
    69  H    0.164049
    70  H    0.194781
    71  H    0.409664
    72  H    0.371856
    73  H    0.371671
    74  H    0.356581
    75  H    0.450840
 Sum of Mulliken charges =   1.00000

 Dipole moment (field-independent basis, Debye):
    X=            -30.1499    Y=             -6.6783    Z=            -41.9521  Tot=             52.0922
 Quadrupole moment (field-independent basis, Debye-Ang):
   XX=             43.8322   YY=           -193.6333   ZZ=            201.5458
   XY=             57.9376   XZ=            282.2719   YZ=             78.0541

 Normal termination of Gaussian 16 at Fri Jun  3 06:00:31 2022.
