 Gaussian 16, Revision C.01,
 Gaussian 16:  ES64L-G16RevC.01  3-Jul-2019

 ----------------------------------------------------------------------
 # B3LYP/6-31G* empiricaldispersion=gd3 guess=read geom=check nosymm in
 tegral(ultrafinegrid)
 ----------------------------------------------------------------------

 ------------------------------------------------------
 Candidate Structure: Conf:879 Charge calc in gas phase
 ------------------------------------------------------
 Structure from the checkpoint file:  "conf-879.chk"
 Charge =  1 Multiplicity = 1

                          Input orientation:
 ---------------------------------------------------------------------
 Center     Atomic      Atomic             Coordinates (Angstroms)
 Number     Number       Type             X           Y           Z
 ---------------------------------------------------------------------
      1          7           0       -9.558704   -3.373239   -7.806052
      2          6           0       -9.235990   -3.314467   -6.341499
      3          6           0       -8.524569   -2.023901   -5.901845
      4          8           0       -8.965744   -1.387313   -4.953114
      5          6           0       -8.386045   -4.535118   -5.973149
      6          6           0       -9.133550   -5.843775   -6.212099
      7          7           0       -8.677958   -6.898947   -5.506199
      8          8           0      -10.070222   -5.922637   -7.013722
      9          1           0      -10.060684   -4.271278   -7.939563
     10          1           0      -10.185427   -3.328606   -5.804405
     11          1           0       -7.469219   -4.545924   -6.573999
     12          1           0       -8.071110   -4.446282   -4.930029
     13          1           0       -9.093882   -7.808130   -5.659749
     14          1           0       -7.906554   -6.811691   -4.858781
     15          1           0      -10.099549   -2.545800   -8.102176
     16          1           0       -8.660680   -3.372279   -8.385099
     17          7           0       -7.370030   -1.695095   -6.553506
     18          6           0       -6.394336   -0.828737   -5.900622
     19          6           0       -6.027978    0.426624   -6.709141
     20          8           0       -4.853001    0.816653   -6.761744
     21          6           0       -5.119399   -1.624471   -5.539033
     22          6           0       -5.406408   -2.912233   -4.794009
     23          6           0       -6.088412   -2.907755   -3.567424
     24          6           0       -4.983076   -4.139692   -5.318483
     25          6           0       -6.332706   -4.098480   -2.882114
     26          6           0       -5.217322   -5.335151   -4.632585
     27          6           0       -5.893106   -5.318045   -3.410344
     28          1           0       -7.045296   -2.291551   -7.320001
     29          1           0       -6.883820   -0.473227   -4.986508
     30          1           0       -4.576886   -1.853030   -6.463697
     31          1           0       -4.464678   -0.969340   -4.955756
     32          1           0       -6.433176   -1.969065   -3.141722
     33          1           0       -4.459053   -4.163210   -6.271072
     34          1           0       -6.854361   -4.073617   -1.929631
     35          1           0       -4.859698   -6.273042   -5.049038
     36          1           0       -6.055570   -6.240709   -2.858569
     37          7           0       -6.995612    1.131528   -7.352635
     38          6           0       -8.428954    0.898916   -7.490059
     39          6           0       -8.800881   -0.177835   -8.530506
     40          8           0       -9.909734   -0.720395   -8.459014
     41          6           0       -9.134246    2.219911   -7.874861
     42          6           0       -8.653920    2.773153   -9.218121
     43          7           0       -9.605745    3.232162  -10.052847
     44          8           0       -7.450760    2.797787   -9.517425
     45          1           0       -6.651846    1.927275   -7.882548
     46          1           0       -8.849933    0.553812   -6.542598
     47          1           0       -8.925699    2.974075   -7.106615
     48          1           0      -10.211885    2.035450   -7.879104
     49          1           0       -9.323427    3.676228  -10.917489
     50          1           0      -10.586113    3.237698   -9.810660
     51          7           0       -7.887492   -0.414955   -9.491697
     52          6           0       -7.954345   -1.525045  -10.451606
     53          6           0       -6.850218   -2.543572   -9.996166
     54          8           0       -5.738289   -2.566539  -10.566260
     55          6           0       -8.038779   -1.035969  -11.915607
     56          6           0       -6.850959   -0.399971  -12.673090
     57          6           0       -6.035495    0.681486  -11.946491
     58          7           0       -5.168575   -0.014963  -10.994596
     59          6           0       -4.566464    0.444610   -9.904849
     60          7           0       -4.582096    1.746598   -9.561563
     61          7           0       -3.885096   -0.437057   -9.141428
     62          8           0       -7.157205   -3.228818   -8.966178
     63          1           0       -7.018863    0.094101   -9.421862
     64          1           0       -8.918971   -1.998412  -10.256534
     65          1           0       -8.367808   -1.894718  -12.512977
     66          1           0       -8.874091   -0.323522  -11.922742
     67          1           0       -6.156955   -1.181899  -13.001318
     68          1           0       -7.259779    0.043855  -13.587349
     69          1           0       -5.422383    1.238545  -12.664478
     70          1           0       -6.689045    1.397170  -11.431343
     71          1           0       -5.227891   -1.049517  -11.050488
     72          1           0       -4.325205    1.962650   -8.602807
     73          1           0       -5.284825    2.351313   -9.970356
     74          1           0       -3.730600   -0.193609   -8.167815
     75          1           0       -4.006566   -1.422089   -9.357143
 ---------------------------------------------------------------------

 SCF Done:  E(RB3LYP) =  -1917.54202114     A.U. after    3 cycles

 Alpha  occ. eigenvalues --  -19.25028 -19.24028 -19.23849 -19.23025 -19.22467
 Alpha  occ. eigenvalues --  -19.21420 -19.21168 -14.51498 -14.48834 -14.48335
 Alpha  occ. eigenvalues --  -14.48127 -14.47933 -14.47666 -14.47606 -14.46777
 Alpha  occ. eigenvalues --  -14.46080 -10.44580 -10.42630 -10.41331 -10.40975
 Alpha  occ. eigenvalues --  -10.40295 -10.40040 -10.39358 -10.36109 -10.36108
 Alpha  occ. eigenvalues --  -10.34711 -10.33749 -10.33738 -10.32768 -10.30819
 Alpha  occ. eigenvalues --  -10.29534 -10.29446 -10.29402 -10.29399 -10.28458
 Alpha  occ. eigenvalues --  -10.28398 -10.28345 -10.28259 -10.28229  -1.16680
 Alpha  occ. eigenvalues --   -1.15998  -1.15533  -1.14990  -1.14522  -1.14067
 Alpha  occ. eigenvalues --   -1.13304  -1.07842  -1.05831  -1.05439  -1.03901
 Alpha  occ. eigenvalues --   -1.03587  -1.03164  -1.02625  -1.01368  -1.01047
 Alpha  occ. eigenvalues --   -0.95007  -0.91080  -0.90178  -0.89812  -0.88246
 Alpha  occ. eigenvalues --   -0.85480  -0.83941  -0.83672  -0.80633  -0.79061
 Alpha  occ. eigenvalues --   -0.78383  -0.76606  -0.74812  -0.72509  -0.71426
 Alpha  occ. eigenvalues --   -0.71146  -0.70599  -0.70445  -0.69769  -0.69513
 Alpha  occ. eigenvalues --   -0.69111  -0.68732  -0.67275  -0.66854  -0.66689
 Alpha  occ. eigenvalues --   -0.66268  -0.65441  -0.63861  -0.63484  -0.62704
 Alpha  occ. eigenvalues --   -0.61858  -0.61364  -0.61025  -0.60384  -0.60003
 Alpha  occ. eigenvalues --   -0.58922  -0.58867  -0.58421  -0.58039  -0.57653
 Alpha  occ. eigenvalues --   -0.56573  -0.56485  -0.56369  -0.55407  -0.55009
 Alpha  occ. eigenvalues --   -0.54854  -0.54456  -0.54278  -0.54016  -0.53214
 Alpha  occ. eigenvalues --   -0.53009  -0.52498  -0.52296  -0.52070  -0.51480
 Alpha  occ. eigenvalues --   -0.51292  -0.51061  -0.50673  -0.50632  -0.49832
 Alpha  occ. eigenvalues --   -0.49731  -0.49387  -0.49084  -0.48545  -0.48375
 Alpha  occ. eigenvalues --   -0.47846  -0.46741  -0.46576  -0.45503  -0.44914
 Alpha  occ. eigenvalues --   -0.44602  -0.44466  -0.43398  -0.43113  -0.40934
 Alpha  occ. eigenvalues --   -0.40096  -0.39816  -0.39103  -0.38947  -0.38781
 Alpha  occ. eigenvalues --   -0.37713  -0.37400  -0.37275  -0.36906  -0.36282
 Alpha  occ. eigenvalues --   -0.36223  -0.35740  -0.35322  -0.34403  -0.34355
 Alpha  occ. eigenvalues --   -0.33937
 Alpha virt. eigenvalues --   -0.11454  -0.10951  -0.10828  -0.10124  -0.09841
 Alpha virt. eigenvalues --   -0.09627  -0.09362  -0.07474  -0.06815  -0.04441
 Alpha virt. eigenvalues --   -0.03311  -0.01854  -0.01567  -0.00896  -0.00270

 Mulliken charges:
               1
     1  N   -0.814544
     2  C   -0.109372
     3  C    0.628517
     4  O   -0.510963
     5  C   -0.416720
     6  C    0.637516
     7  N   -0.742347
     8  O   -0.534131
     9  H    0.418147
    10  H    0.217284
    11  H    0.220166
    12  H    0.211170
    13  H    0.365702
    14  H    0.357789
    15  H    0.427584
    16  H    0.431706
    17  N   -0.652742
    18  C   -0.085134
    19  C    0.633911
    20  O   -0.556994
    21  C   -0.359860
    22  C    0.174419
    23  C   -0.180097
    24  C   -0.198454
    25  C   -0.137777
    26  C   -0.135824
    27  C   -0.160091
    28  H    0.386449
    29  H    0.222576
    30  H    0.140221
    31  H    0.197852
    32  H    0.151698
    33  H    0.145739
    34  H    0.158637
    35  H    0.153182
    36  H    0.150597
    37  N   -0.639623
    38  C   -0.056514
    39  C    0.643954
    40  O   -0.583637
    41  C   -0.395439
    42  C    0.619935
    43  N   -0.724877
    44  O   -0.557892
    45  H    0.367060
    46  H    0.221461
    47  H    0.216669
    48  H    0.196008
    49  H    0.365905
    50  H    0.368851
    51  N   -0.610556
    52  C   -0.075801
    53  C    0.604826
    54  O   -0.554398
    55  C   -0.267478
    56  C   -0.316677
    57  C   -0.159625
    58  N   -0.630028
    59  C    0.718180
    60  N   -0.753508
    61  N   -0.769498
    62  O   -0.599214
    63  H    0.366276
    64  H    0.164809
    65  H    0.172638
    66  H    0.152491
    67  H    0.185263
    68  H    0.170429
    69  H    0.188076
    70  H    0.175646
    71  H    0.418237
    72  H    0.377962
    73  H    0.392624
    74  H    0.392267
    75  H    0.379389
 Sum of Mulliken charges =   1.00000

 Dipole moment (field-independent basis, Debye):
    X=            -37.2361    Y=             -3.1993    Z=            -39.5466  Tot=             54.4123
 Quadrupole moment (field-independent basis, Debye-Ang):
   XX=             78.5466   YY=           -147.0419   ZZ=            144.3034
   XY=             14.6001   XZ=            314.6139   YZ=            -22.3943

 Normal termination of Gaussian 16 at Fri Jun  3 06:01:15 2022.
