 Gaussian 16, Revision C.01,
 Gaussian 16:  ES64L-G16RevC.01  3-Jul-2019

 ----------------------------------------------------------------------
 # B3LYP/6-31G* empiricaldispersion=gd3 guess=read geom=check nosymm in
 tegral(ultrafinegrid)
 ----------------------------------------------------------------------

 ------------------------------------------------------
 Candidate Structure: Conf:197 Charge calc in gas phase
 ------------------------------------------------------
 Structure from the checkpoint file:  "conf-197.chk"
 Charge =  1 Multiplicity = 1

                          Input orientation:
 ---------------------------------------------------------------------
 Center     Atomic      Atomic             Coordinates (Angstroms)
 Number     Number       Type             X           Y           Z
 ---------------------------------------------------------------------
      1          7           0       -4.444503   -1.027660   -6.908066
      2          6           0       -4.488558   -2.528319   -6.913581
      3          6           0       -5.556614   -3.122919   -7.845807
      4          8           0       -5.241008   -3.993074   -8.648272
      5          6           0       -4.714116   -3.024103   -5.481217
      6          6           0       -3.577286   -2.615800   -4.549241
      7          7           0       -3.440829   -3.379005   -3.445552
      8          8           0       -2.857114   -1.640823   -4.788056
      9          1           0       -5.366081   -0.630156   -6.546726
     10          1           0       -3.527772   -2.875080   -7.296601
     11          1           0       -5.650366   -2.610960   -5.087814
     12          1           0       -4.839067   -4.110065   -5.499084
     13          1           0       -2.740817   -3.128870   -2.759514
     14          1           0       -4.042484   -4.172096   -3.270179
     15          1           0       -3.674154   -0.777923   -6.259329
     16          1           0       -4.323233   -0.654614   -7.862890
     17          7           0       -6.839399   -2.697324   -7.662145
     18          6           0       -7.952876   -3.512617   -8.131041
     19          6           0       -8.914726   -2.739535   -9.046315
     20          8           0      -10.140713   -2.778013   -8.855894
     21          6           0       -8.714563   -4.136040   -6.940158
     22          6           0       -7.805043   -4.818878   -5.938241
     23          6           0       -6.953701   -5.867589   -6.318905
     24          6           0       -7.804286   -4.411673   -4.598315
     25          6           0       -6.129569   -6.493696   -5.382871
     26          6           0       -6.987606   -5.040709   -3.654095
     27          6           0       -6.146513   -6.085401   -4.044083
     28          1           0       -7.035481   -1.963998   -6.973188
     29          1           0       -7.502211   -4.301801   -8.743134
     30          1           0       -9.281548   -3.346791   -6.434484
     31          1           0       -9.458260   -4.834290   -7.338840
     32          1           0       -6.927725   -6.197461   -7.353926
     33          1           0       -8.454738   -3.598210   -4.285580
     34          1           0       -5.482893   -7.308428   -5.695864
     35          1           0       -7.021730   -4.721718   -2.615742
     36          1           0       -5.526772   -6.595840   -3.311022
     37          7           0       -8.423020   -2.030761  -10.094328
     38          6           0       -7.054737   -1.643935  -10.422912
     39          6           0       -6.480209   -0.527418   -9.520624
     40          8           0       -5.254535   -0.378000   -9.458303
     41          6           0       -6.990286   -1.180738  -11.895255
     42          6           0       -7.883746    0.029328  -12.180829
     43          7           0       -7.387104    0.949363  -13.029858
     44          8           0       -9.005522    0.151429  -11.665923
     45          1           0       -9.126437   -1.532618  -10.634825
     46          1           0       -6.380569   -2.495867  -10.306076
     47          1           0       -7.321550   -2.002367  -12.541972
     48          1           0       -5.944848   -0.968466  -12.135719
     49          1           0       -7.976855    1.722894  -13.309504
     50          1           0       -6.482988    0.853918  -13.469515
     51          7           0       -7.384416    0.243143   -8.887864
     52          6           0       -7.091170    1.261935   -7.878762
     53          6           0       -7.563317    0.676163   -6.496406
     54          8           0       -8.546697    1.166338   -5.906446
     55          6           0       -7.599384    2.679420   -8.276707
     56          6           0       -8.728213    2.791681   -9.329796
     57          6           0      -10.162713    2.713607   -8.777978
     58          7           0      -10.356273    1.618793   -7.830728
     59          6           0      -10.676979    0.356250   -8.110867
     60          7           0      -11.056518   -0.045305   -9.340516
     61          7           0      -10.658864   -0.544996   -7.111064
     62          8           0       -6.901280   -0.339667   -6.099878
     63          1           0       -8.353919    0.014342   -9.053689
     64          1           0       -6.000805    1.306744   -7.830010
     65          1           0       -7.881348    3.203926   -7.356678
     66          1           0       -6.736424    3.215326   -8.684136
     67          1           0       -8.637081    3.765244   -9.825875
     68          1           0       -8.588823    2.041599  -10.114888
     69          1           0      -10.399575    3.628774   -8.226758
     70          1           0      -10.897419    2.639949   -9.586285
     71          1           0       -9.826253    1.718511   -6.949203
     72          1           0      -11.136901   -1.049976   -9.485496
     73          1           0      -10.803740    0.501002  -10.153577
     74          1           0      -10.691065   -1.531635   -7.349566
     75          1           0      -10.228847   -0.269957   -6.232871
 ---------------------------------------------------------------------

 SCF Done:  E(RB3LYP) =  -1917.54513368     A.U. after    1 cycles

 Alpha  occ. eigenvalues --  -19.24945 -19.24440 -19.23852 -19.22920 -19.22494
 Alpha  occ. eigenvalues --  -19.21355 -19.21160 -14.51571 -14.48709 -14.48366
 Alpha  occ. eigenvalues --  -14.48287 -14.47959 -14.47643 -14.47607 -14.46636
 Alpha  occ. eigenvalues --  -14.46116 -10.44638 -10.42551 -10.41516 -10.41024
 Alpha  occ. eigenvalues --  -10.40214 -10.40064 -10.39218 -10.36114 -10.36112
 Alpha  occ. eigenvalues --  -10.34681 -10.33764 -10.33731 -10.32740 -10.30847
 Alpha  occ. eigenvalues --  -10.29422 -10.29420 -10.29305 -10.29228 -10.28371
 Alpha  occ. eigenvalues --  -10.28301 -10.28234 -10.28182 -10.28110  -1.16686
 Alpha  occ. eigenvalues --   -1.16084  -1.15612  -1.14914  -1.14509  -1.14088
 Alpha  occ. eigenvalues --   -1.13251  -1.07877  -1.05974  -1.05428  -1.03930
 Alpha  occ. eigenvalues --   -1.03487  -1.03122  -1.02726  -1.01237  -1.01076
 Alpha  occ. eigenvalues --   -0.94907  -0.91057  -0.90157  -0.89696  -0.88202
 Alpha  occ. eigenvalues --   -0.85365  -0.83919  -0.83579  -0.80558  -0.79053
 Alpha  occ. eigenvalues --   -0.78536  -0.76624  -0.75058  -0.72820  -0.71355
 Alpha  occ. eigenvalues --   -0.71027  -0.70469  -0.70324  -0.69841  -0.69554
 Alpha  occ. eigenvalues --   -0.69065  -0.68794  -0.67210  -0.66816  -0.66342
 Alpha  occ. eigenvalues --   -0.66272  -0.65328  -0.63866  -0.63563  -0.62654
 Alpha  occ. eigenvalues --   -0.62011  -0.61300  -0.61245  -0.60571  -0.59863
 Alpha  occ. eigenvalues --   -0.58992  -0.58659  -0.58396  -0.58148  -0.57663
 Alpha  occ. eigenvalues --   -0.56841  -0.56514  -0.56400  -0.55314  -0.55021
 Alpha  occ. eigenvalues --   -0.54947  -0.54515  -0.54145  -0.53949  -0.53100
 Alpha  occ. eigenvalues --   -0.52903  -0.52681  -0.52338  -0.52163  -0.51649
 Alpha  occ. eigenvalues --   -0.51383  -0.51064  -0.50773  -0.50569  -0.49830
 Alpha  occ. eigenvalues --   -0.49640  -0.49443  -0.49003  -0.48508  -0.47878
 Alpha  occ. eigenvalues --   -0.47759  -0.46785  -0.46583  -0.46106  -0.44779
 Alpha  occ. eigenvalues --   -0.44544  -0.44388  -0.43306  -0.43006  -0.41007
 Alpha  occ. eigenvalues --   -0.40059  -0.39721  -0.39239  -0.39017  -0.38763
 Alpha  occ. eigenvalues --   -0.37500  -0.37360  -0.37289  -0.37015  -0.36316
 Alpha  occ. eigenvalues --   -0.36272  -0.35752  -0.35230  -0.34329  -0.34277
 Alpha  occ. eigenvalues --   -0.33867
 Alpha virt. eigenvalues --   -0.11694  -0.10854  -0.10771  -0.09960  -0.09798
 Alpha virt. eigenvalues --   -0.09553  -0.09362  -0.07474  -0.07065  -0.04394
 Alpha virt. eigenvalues --   -0.03333  -0.01971  -0.01721  -0.00883  -0.00334

 Mulliken charges:
               1
     1  N   -0.813647
     2  C   -0.109923
     3  C    0.630485
     4  O   -0.514567
     5  C   -0.415395
     6  C    0.637913
     7  N   -0.741749
     8  O   -0.534120
     9  H    0.430454
    10  H    0.217058
    11  H    0.218839
    12  H    0.212181
    13  H    0.365958
    14  H    0.357673
    15  H    0.418485
    16  H    0.427557
    17  N   -0.651544
    18  C   -0.081106
    19  C    0.625761
    20  O   -0.555564
    21  C   -0.356189
    22  C    0.173297
    23  C   -0.178845
    24  C   -0.197271
    25  C   -0.138078
    26  C   -0.136911
    27  C   -0.159125
    28  H    0.389861
    29  H    0.220022
    30  H    0.144320
    31  H    0.194832
    32  H    0.152275
    33  H    0.143329
    34  H    0.158266
    35  H    0.152025
    36  H    0.150152
    37  N   -0.631949
    38  C   -0.060759
    39  C    0.642183
    40  O   -0.583308
    41  C   -0.395669
    42  C    0.626557
    43  N   -0.725831
    44  O   -0.560773
    45  H    0.370117
    46  H    0.221288
    47  H    0.217642
    48  H    0.197619
    49  H    0.366350
    50  H    0.367950
    51  N   -0.605581
    52  C   -0.059020
    53  C    0.602602
    54  O   -0.553247
    55  C   -0.301151
    56  C   -0.302125
    57  C   -0.178612
    58  N   -0.592128
    59  C    0.718856
    60  N   -0.767759
    61  N   -0.781095
    62  O   -0.604609
    63  H    0.361106
    64  H    0.169831
    65  H    0.177867
    66  H    0.166065
    67  H    0.166761
    68  H    0.165462
    69  H    0.193996
    70  H    0.174126
    71  H    0.403594
    72  H    0.385987
    73  H    0.386635
    74  H    0.398366
    75  H    0.385950
 Sum of Mulliken charges =   1.00000

 Dipole moment (field-independent basis, Debye):
    X=            -34.4827    Y=             -4.4902    Z=            -41.8250  Tot=             54.3926
 Quadrupole moment (field-independent basis, Debye-Ang):
   XX=             43.7797   YY=           -176.3211   ZZ=            209.3143
   XY=             11.3912   XZ=            321.9246   YZ=             -7.0070

 Normal termination of Gaussian 16 at Fri Jun  3 06:00:31 2022.
