 Gaussian 16, Revision C.01,
 Gaussian 16:  ES64L-G16RevC.01  3-Jul-2019

 ----------------------------------------------------------------------
 # B3LYP/6-31G* empiricaldispersion=gd3 guess=read geom=check nosymm in
 tegral(ultrafinegrid)
 ----------------------------------------------------------------------

 ------------------------------------------------------
 Candidate Structure: Conf:472 Charge calc in gas phase
 ------------------------------------------------------
 Structure from the checkpoint file:  "conf-472.chk"
 Charge =  1 Multiplicity = 1

                          Input orientation:
 ---------------------------------------------------------------------
 Center     Atomic      Atomic             Coordinates (Angstroms)
 Number     Number       Type             X           Y           Z
 ---------------------------------------------------------------------
      1          7           0       -6.158309   -0.326208  -11.013799
      2          6           0       -5.432913   -1.603254  -10.628522
      3          6           0       -6.422288   -2.656323  -10.081938
      4          8           0       -7.013413   -3.367501  -10.884009
      5          6           0       -4.213986   -1.263889   -9.770490
      6          6           0       -3.392159   -0.179028  -10.480175
      7          7           0       -2.705391    0.655496   -9.659816
      8          8           0       -3.368365   -0.121174  -11.707399
      9          1           0       -5.718415    0.046988  -11.861045
     10          1           0       -5.091763   -2.030147  -11.571370
     11          1           0       -4.487008   -0.944464   -8.762854
     12          1           0       -3.591618   -2.163104   -9.690075
     13          1           0       -2.241379    1.432734  -10.115911
     14          1           0       -3.111467    0.854650   -8.752806
     15          1           0       -7.176811   -0.476418  -11.137430
     16          1           0       -6.040306    0.399703  -10.249702
     17          7           0       -6.576699   -2.781668   -8.728173
     18          6           0       -7.117928   -4.027243   -8.176364
     19          6           0       -8.269900   -3.797376   -7.189778
     20          8           0       -8.313116   -4.373691   -6.101112
     21          6           0       -6.010293   -4.936000   -7.585392
     22          6           0       -5.283662   -4.408634   -6.363526
     23          6           0       -4.399332   -3.323705   -6.445112
     24          6           0       -5.473272   -5.013482   -5.111157
     25          6           0       -3.761651   -2.823384   -5.305668
     26          6           0       -4.821486   -4.534284   -3.974161
     27          6           0       -3.973636   -3.425834   -4.063630
     28          1           0       -6.126761   -2.129032   -8.092477
     29          1           0       -7.541713   -4.554063   -9.039267
     30          1           0       -6.472201   -5.898299   -7.347942
     31          1           0       -5.297304   -5.115558   -8.398844
     32          1           0       -4.178039   -2.876228   -7.408040
     33          1           0       -6.150004   -5.858742   -5.029986
     34          1           0       -3.087563   -1.976352   -5.395802
     35          1           0       -4.978083   -5.023376   -3.016890
     36          1           0       -3.469839   -3.048637   -3.178511
     37          7           0       -9.265420   -2.930879   -7.534252
     38          6           0       -9.613058   -2.358360   -8.830346
     39          6           0       -8.959907   -0.998284   -9.129212
     40          8           0       -8.811117   -0.644639  -10.306984
     41          6           0      -11.148817   -2.178243   -8.912102
     42          6           0      -11.683859   -1.233366   -7.830822
     43          7           0      -12.548821   -0.285907   -8.239918
     44          8           0      -11.341242   -1.338352   -6.643820
     45          1           0       -9.978716   -2.823294   -6.819380
     46          1           0       -9.293817   -3.017678   -9.642124
     47          1           0      -11.631453   -3.152872   -8.772970
     48          1           0      -11.396256   -1.821856   -9.915736
     49          1           0      -12.979615    0.312654   -7.546642
     50          1           0      -12.854915   -0.204418   -9.198750
     51          7           0       -8.668937   -0.240320   -8.058216
     52          6           0       -7.917616    1.010160   -8.154019
     53          6           0       -6.404199    0.708189   -7.945694
     54          8           0       -6.062829   -0.043501   -6.986002
     55          6           0       -8.500449    2.128576   -7.266789
     56          6           0       -8.344071    2.057183   -5.736922
     57          6           0       -8.968213    0.838983   -5.041105
     58          7           0       -8.040480   -0.295941   -5.131580
     59          6           0       -8.248104   -1.521060   -4.651723
     60          7           0       -9.485411   -1.928045   -4.301110
     61          7           0       -7.204392   -2.341848   -4.470843
     62          8           0       -5.626535    1.177212   -8.819798
     63          1           0       -8.709061   -0.699969   -7.158387
     64          1           0       -8.037149    1.342386   -9.186100
     65          1           0       -8.034778    3.062934   -7.601149
     66          1           0       -9.567512    2.203595   -7.514173
     67          1           0       -7.285635    2.122931   -5.455845
     68          1           0       -8.822243    2.952380   -5.324763
     69          1           0       -9.151240    1.054172   -3.982481
     70          1           0       -9.932572    0.589927   -5.504279
     71          1           0       -7.165835   -0.154869   -5.680024
     72          1           0       -9.590195   -2.886727   -3.994888
     73          1           0      -10.283302   -1.535620   -4.791895
     74          1           0       -7.336669   -3.338127   -4.618626
     75          1           0       -6.266535   -2.005581   -4.659542
 ---------------------------------------------------------------------

 SCF Done:  E(RB3LYP) =  -1917.53269480     A.U. after    1 cycles

 Alpha  occ. eigenvalues --  -19.25148 -19.23844 -19.23588 -19.23562 -19.21657
 Alpha  occ. eigenvalues --  -19.21259 -19.21082 -14.53459 -14.48954 -14.48897
 Alpha  occ. eigenvalues --  -14.48165 -14.48091 -14.47782 -14.47639 -14.47608
 Alpha  occ. eigenvalues --  -14.44342 -10.44888 -10.42794 -10.41102 -10.41015
 Alpha  occ. eigenvalues --  -10.40802 -10.39120 -10.38856 -10.36670 -10.36170
 Alpha  occ. eigenvalues --  -10.34888 -10.34142 -10.33317 -10.32930 -10.30708
 Alpha  occ. eigenvalues --  -10.29985 -10.29876 -10.29448 -10.29424 -10.28543
 Alpha  occ. eigenvalues --  -10.28480 -10.28261 -10.28208 -10.28034  -1.16748
 Alpha  occ. eigenvalues --   -1.16105  -1.15460  -1.15391  -1.14523  -1.13607
 Alpha  occ. eigenvalues --   -1.13072  -1.08717  -1.05847  -1.05326  -1.04234
 Alpha  occ. eigenvalues --   -1.03714  -1.03298  -1.02824  -1.01697  -0.99630
 Alpha  occ. eigenvalues --   -0.95058  -0.91337  -0.90537  -0.90041  -0.88254
 Alpha  occ. eigenvalues --   -0.85522  -0.83899  -0.83788  -0.80729  -0.79303
 Alpha  occ. eigenvalues --   -0.78308  -0.76722  -0.75378  -0.72439  -0.71747
 Alpha  occ. eigenvalues --   -0.71356  -0.70753  -0.70359  -0.69842  -0.69685
 Alpha  occ. eigenvalues --   -0.68860  -0.68105  -0.67335  -0.67130  -0.66924
 Alpha  occ. eigenvalues --   -0.66651  -0.65547  -0.64186  -0.63234  -0.62603
 Alpha  occ. eigenvalues --   -0.62385  -0.61656  -0.61084  -0.60839  -0.60293
 Alpha  occ. eigenvalues --   -0.59261  -0.59024  -0.58458  -0.57869  -0.57807
 Alpha  occ. eigenvalues --   -0.56753  -0.55899  -0.55441  -0.55348  -0.55178
 Alpha  occ. eigenvalues --   -0.55071  -0.54520  -0.54281  -0.53643  -0.53328
 Alpha  occ. eigenvalues --   -0.53139  -0.52431  -0.52265  -0.51882  -0.51588
 Alpha  occ. eigenvalues --   -0.51259  -0.51148  -0.50932  -0.50300  -0.50060
 Alpha  occ. eigenvalues --   -0.49689  -0.49273  -0.48753  -0.48495  -0.48027
 Alpha  occ. eigenvalues --   -0.47909  -0.47337  -0.46510  -0.45771  -0.45390
 Alpha  occ. eigenvalues --   -0.45096  -0.44593  -0.43307  -0.43190  -0.40946
 Alpha  occ. eigenvalues --   -0.40347  -0.40076  -0.39317  -0.38994  -0.38627
 Alpha  occ. eigenvalues --   -0.38009  -0.37500  -0.37198  -0.36817  -0.36659
 Alpha  occ. eigenvalues --   -0.36032  -0.35434  -0.34773  -0.34485  -0.34095
 Alpha  occ. eigenvalues --   -0.33587
 Alpha virt. eigenvalues --   -0.11804  -0.11266  -0.10992  -0.10453  -0.10214
 Alpha virt. eigenvalues --   -0.09751  -0.09360  -0.08352  -0.07119  -0.04578
 Alpha virt. eigenvalues --   -0.03261  -0.02650  -0.01272  -0.00766  -0.00437

 Mulliken charges:
               1
     1  N   -0.820390
     2  C   -0.072822
     3  C    0.595558
     4  O   -0.492725
     5  C   -0.418443
     6  C    0.598591
     7  N   -0.723163
     8  O   -0.516157
     9  H    0.414062
    10  H    0.238569
    11  H    0.201154
    12  H    0.209362
    13  H    0.353945
    14  H    0.361821
    15  H    0.444124
    16  H    0.436824
    17  N   -0.637383
    18  C   -0.096500
    19  C    0.623074
    20  O   -0.545559
    21  C   -0.347056
    22  C    0.169321
    23  C   -0.199869
    24  C   -0.206044
    25  C   -0.149353
    26  C   -0.129034
    27  C   -0.145330
    28  H    0.371701
    29  H    0.222862
    30  H    0.181081
    31  H    0.171786
    32  H    0.132076
    33  H    0.155740
    34  H    0.152743
    35  H    0.156280
    36  H    0.156855
    37  N   -0.637149
    38  C   -0.056633
    39  C    0.634970
    40  O   -0.587176
    41  C   -0.394768
    42  C    0.624292
    43  N   -0.724589
    44  O   -0.559551
    45  H    0.364630
    46  H    0.216415
    47  H    0.214965
    48  H    0.195199
    49  H    0.365464
    50  H    0.368831
    51  N   -0.597039
    52  C   -0.083371
    53  C    0.621526
    54  O   -0.603941
    55  C   -0.281885
    56  C   -0.314295
    57  C   -0.149894
    58  N   -0.656991
    59  C    0.730793
    60  N   -0.750256
    61  N   -0.768537
    62  O   -0.589470
    63  H    0.376405
    64  H    0.174305
    65  H    0.180129
    66  H    0.154593
    67  H    0.176382
    68  H    0.176317
    69  H    0.190654
    70  H    0.172431
    71  H    0.412445
    72  H    0.371970
    73  H    0.400734
    74  H    0.404857
    75  H    0.379539
 Sum of Mulliken charges =   1.00000

 Dipole moment (field-independent basis, Debye):
    X=            -41.8112    Y=             -4.3532    Z=            -33.8800  Tot=             53.9905
 Quadrupole moment (field-independent basis, Debye-Ang):
   XX=            191.6187   YY=           -196.2793   ZZ=             37.3460
   XY=             32.2451   XZ=            305.5310   YZ=             21.6145

 Normal termination of Gaussian 16 at Fri Jun  3 06:00:31 2022.
