 Gaussian 16, Revision C.01,
 Gaussian 16:  ES64L-G16RevC.01  3-Jul-2019

 ----------------------------------------------------------------------
 # B3LYP/6-31G* empiricaldispersion=gd3 guess=read geom=check nosymm in
 tegral(ultrafinegrid)
 ----------------------------------------------------------------------

 ------------------------------------------------------
 Candidate Structure: Conf:121 Charge calc in gas phase
 ------------------------------------------------------
 Structure from the checkpoint file:  "conf-121.chk"
 Charge =  1 Multiplicity = 1

                          Input orientation:
 ---------------------------------------------------------------------
 Center     Atomic      Atomic             Coordinates (Angstroms)
 Number     Number       Type             X           Y           Z
 ---------------------------------------------------------------------
      1          7           0       -8.245722    2.106545   -7.100900
      2          6           0       -8.898720    0.761006   -6.903714
      3          6           0       -7.929089   -0.024181   -6.003419
      4          8           0       -7.453166    0.569016   -5.033816
      5          6           0       -9.226298    0.165176   -8.261029
      6          6           0      -10.032967    1.076611   -9.178920
      7          7           0      -10.458787    0.479592  -10.306353
      8          8           0      -10.226683    2.271366   -8.910905
      9          1           0       -8.901535    2.660212   -7.695161
     10          1           0       -9.807594    0.933601   -6.319003
     11          1           0       -8.291011   -0.044084   -8.772832
     12          1           0       -9.738095   -0.790031   -8.128264
     13          1           0      -10.928716    1.043758  -11.002452
     14          1           0      -10.177715   -0.468888  -10.551351
     15          1           0       -8.055799    2.529586   -6.186570
     16          1           0       -7.339864    1.945320   -7.583644
     17          7           0       -7.640137   -1.293999   -6.348007
     18          6           0       -7.033772   -2.209817   -5.391767
     19          6           0       -5.818488   -2.918125   -6.008615
     20          8           0       -5.720372   -4.154254   -5.999054
     21          6           0       -8.094621   -3.217102   -4.877472
     22          6           0       -9.372239   -2.498823   -4.508011
     23          6           0       -9.511192   -1.864046   -3.268895
     24          6           0      -10.399256   -2.364933   -5.453936
     25          6           0      -10.647870   -1.106547   -2.980420
     26          6           0      -11.537066   -1.607400   -5.170570
     27          6           0      -11.661459   -0.972005   -3.931767
     28          1           0       -7.978592   -1.714850   -7.227058
     29          1           0       -6.679151   -1.595332   -4.557114
     30          1           0       -8.293568   -3.951127   -5.663985
     31          1           0       -7.671444   -3.767646   -4.031763
     32          1           0       -8.721326   -1.955826   -2.526894
     33          1           0      -10.300109   -2.852414   -6.422283
     34          1           0      -10.742005   -0.622671   -2.012486
     35          1           0      -12.329455   -1.522922   -5.909673
     36          1           0      -12.548149   -0.386804   -3.705147
     37          7           0       -4.827185   -2.166463   -6.553102
     38          6           0       -4.801523   -0.744731   -6.890179
     39          6           0       -5.632800   -0.385459   -8.145122
     40          8           0       -6.062929    0.770461   -8.298195
     41          6           0       -3.338733   -0.301567   -7.118354
     42          6           0       -2.655876   -1.062568   -8.261062
     43          7           0       -1.811955   -0.343046   -9.029250
     44          8           0       -2.856364   -2.267598   -8.459071
     45          1           0       -4.069705   -2.700835   -6.976842
     46          1           0       -5.217039   -0.152560   -6.070963
     47          1           0       -2.764292   -0.485695   -6.202314
     48          1           0       -3.334191    0.776870   -7.302131
     49          1           0       -1.277356   -0.823501   -9.741567
     50          1           0       -1.616284    0.633018   -8.861229
     51          7           0       -5.782987   -1.375226   -9.034377
     52          6           0       -6.657521   -1.360827  -10.198188
     53          6           0       -7.985140   -2.149514   -9.928093
     54          8           0       -8.158984   -2.604162   -8.747003
     55          6           0       -5.911326   -1.799272  -11.478759
     56          6           0       -5.013058   -3.048057  -11.391137
     57          6           0       -5.716878   -4.413455  -11.441533
     58          7           0       -6.661427   -4.694944  -10.354532
     59          6           0       -6.357931   -4.955414   -9.078777
     60          7           0       -5.086337   -5.080085   -8.667625
     61          7           0       -7.360939   -5.122335   -8.193741
     62          8           0       -8.768139   -2.236322  -10.888386
     63          1           0       -5.437642   -2.279149   -8.744653
     64          1           0       -6.951048   -0.318288  -10.352039
     65          1           0       -6.668620   -1.922964  -12.259888
     66          1           0       -5.268031   -0.964993  -11.780373
     67          1           0       -4.344307   -3.035881  -12.261089
     68          1           0       -4.348487   -2.979540  -10.520517
     69          1           0       -6.301100   -4.490954  -12.361737
     70          1           0       -4.974267   -5.220434  -11.480020
     71          1           0       -7.646923   -4.586072  -10.565986
     72          1           0       -4.904009   -5.031862   -7.666085
     73          1           0       -4.306051   -5.030237   -9.304357
     74          1           0       -7.065900   -5.159606   -7.220745
     75          1           0       -8.130546   -4.461090   -8.349042
 ---------------------------------------------------------------------

 SCF Done:  E(RB3LYP) =  -1917.53538372     A.U. after    1 cycles

 Alpha  occ. eigenvalues --  -19.24197 -19.24141 -19.23907 -19.23226 -19.22877
 Alpha  occ. eigenvalues --  -19.19888 -19.18896 -14.54882 -14.49516 -14.49262
 Alpha  occ. eigenvalues --  -14.48094 -14.47553 -14.47435 -14.46553 -14.46436
 Alpha  occ. eigenvalues --  -14.45588 -10.44963 -10.41895 -10.41210 -10.40818
 Alpha  occ. eigenvalues --  -10.40615 -10.40304 -10.37423 -10.37208 -10.36013
 Alpha  occ. eigenvalues --  -10.34624 -10.34307 -10.32629 -10.32551 -10.30967
 Alpha  occ. eigenvalues --  -10.29810 -10.28885 -10.28715 -10.27918 -10.27086
 Alpha  occ. eigenvalues --  -10.27024 -10.26859 -10.26788 -10.26735  -1.16275
 Alpha  occ. eigenvalues --   -1.15685  -1.15438  -1.15080  -1.14280  -1.13890
 Alpha  occ. eigenvalues --   -1.12586  -1.09698  -1.05525  -1.04186  -1.03960
 Alpha  occ. eigenvalues --   -1.03514  -1.02860  -1.02707  -1.01161  -1.00869
 Alpha  occ. eigenvalues --   -0.93688  -0.91139  -0.90709  -0.89866  -0.87655
 Alpha  occ. eigenvalues --   -0.85325  -0.83077  -0.82323  -0.80369  -0.79832
 Alpha  occ. eigenvalues --   -0.78487  -0.75965  -0.75422  -0.72340  -0.71675
 Alpha  occ. eigenvalues --   -0.70919  -0.70679  -0.70350  -0.70085  -0.69643
 Alpha  occ. eigenvalues --   -0.68996  -0.68298  -0.67589  -0.66503  -0.66401
 Alpha  occ. eigenvalues --   -0.66040  -0.65200  -0.63760  -0.63530  -0.62590
 Alpha  occ. eigenvalues --   -0.62241  -0.61338  -0.61045  -0.60335  -0.59340
 Alpha  occ. eigenvalues --   -0.59075  -0.58445  -0.58248  -0.57903  -0.57158
 Alpha  occ. eigenvalues --   -0.56952  -0.56791  -0.56131  -0.55224  -0.54821
 Alpha  occ. eigenvalues --   -0.54289  -0.54048  -0.53491  -0.53407  -0.53244
 Alpha  occ. eigenvalues --   -0.52820  -0.52541  -0.52087  -0.51694  -0.51184
 Alpha  occ. eigenvalues --   -0.50892  -0.50620  -0.50489  -0.49901  -0.49849
 Alpha  occ. eigenvalues --   -0.49616  -0.48804  -0.48439  -0.48422  -0.47733
 Alpha  occ. eigenvalues --   -0.47402  -0.46480  -0.46092  -0.45834  -0.44747
 Alpha  occ. eigenvalues --   -0.44126  -0.43696  -0.42072  -0.41913  -0.40970
 Alpha  occ. eigenvalues --   -0.39889  -0.39426  -0.38694  -0.38331  -0.38195
 Alpha  occ. eigenvalues --   -0.37986  -0.37849  -0.37305  -0.36743  -0.36396
 Alpha  occ. eigenvalues --   -0.35885  -0.35316  -0.34227  -0.32861  -0.32465
 Alpha  occ. eigenvalues --   -0.32286
 Alpha virt. eigenvalues --   -0.11258  -0.10846  -0.10120  -0.09966  -0.09010
 Alpha virt. eigenvalues --   -0.08624  -0.08226  -0.07882  -0.06093  -0.04791
 Alpha virt. eigenvalues --   -0.03709  -0.03488  -0.02031  -0.01104  -0.00115

 Mulliken charges:
               1
     1  N   -0.761837
     2  C   -0.115437
     3  C    0.652027
     4  O   -0.547474
     5  C   -0.437169
     6  C    0.626066
     7  N   -0.752921
     8  O   -0.547559
     9  H    0.429108
    10  H    0.235796
    11  H    0.208252
    12  H    0.227943
    13  H    0.362631
    14  H    0.391277
    15  H    0.406901
    16  H    0.433921
    17  N   -0.672562
    18  C   -0.070794
    19  C    0.629579
    20  O   -0.557691
    21  C   -0.358610
    22  C    0.162197
    23  C   -0.168580
    24  C   -0.202834
    25  C   -0.128131
    26  C   -0.145773
    27  C   -0.134984
    28  H    0.438711
    29  H    0.215464
    30  H    0.147560
    31  H    0.182414
    32  H    0.138102
    33  H    0.136618
    34  H    0.150683
    35  H    0.144413
    36  H    0.149260
    37  N   -0.629491
    38  C   -0.059988
    39  C    0.644351
    40  O   -0.608323
    41  C   -0.392887
    42  C    0.619328
    43  N   -0.728099
    44  O   -0.546007
    45  H    0.370782
    46  H    0.207403
    47  H    0.215966
    48  H    0.186783
    49  H    0.364638
    50  H    0.363564
    51  N   -0.567122
    52  C   -0.083178
    53  C    0.592382
    54  O   -0.651076
    55  C   -0.273834
    56  C   -0.312598
    57  C   -0.169584
    58  N   -0.584413
    59  C    0.750514
    60  N   -0.774958
    61  N   -0.760111
    62  O   -0.561423
    63  H    0.356127
    64  H    0.186295
    65  H    0.182783
    66  H    0.155997
    67  H    0.171087
    68  H    0.162240
    69  H    0.198241
    70  H    0.175814
    71  H    0.383883
    72  H    0.399100
    73  H    0.377305
    74  H    0.386449
    75  H    0.385492
 Sum of Mulliken charges =   1.00000

 Dipole moment (field-independent basis, Debye):
    X=            -27.0411    Y=             -5.0197    Z=            -40.3554  Tot=             48.8362
 Quadrupole moment (field-independent basis, Debye-Ang):
   XX=            -23.0859   YY=           -183.9832   ZZ=            144.6119
   XY=             20.8659   XZ=            211.0564   YZ=             58.9898

 Normal termination of Gaussian 16 at Fri Jun  3 06:00:30 2022.
