 Gaussian 16, Revision C.01,
 Gaussian 16:  ES64L-G16RevC.01  3-Jul-2019

 ----------------------------------------------------------------------
 # B3LYP/6-31G* empiricaldispersion=gd3 guess=read geom=check nosymm in
 tegral(ultrafinegrid)
 ----------------------------------------------------------------------

 ------------------------------------------------------
 Candidate Structure: Conf:315 Charge calc in gas phase
 ------------------------------------------------------
 Structure from the checkpoint file:  "conf-315.chk"
 Charge =  1 Multiplicity = 1

                          Input orientation:
 ---------------------------------------------------------------------
 Center     Atomic      Atomic             Coordinates (Angstroms)
 Number     Number       Type             X           Y           Z
 ---------------------------------------------------------------------
      1          7           0       -6.457558    1.066025   -8.800921
      2          6           0       -5.218265    0.696570   -8.038362
      3          6           0       -5.033288   -0.815542   -7.832058
      4          8           0       -3.963960   -1.338311   -8.121913
      5          6           0       -5.239422    1.407777   -6.681015
      6          6           0       -5.232208    2.925968   -6.831674
      7          7           0       -4.771622    3.604811   -5.761111
      8          8           0       -5.643110    3.480845   -7.856200
      9          1           0       -7.328341    0.758840   -8.266565
     10          1           0       -4.365903    1.025570   -8.634445
     11          1           0       -6.138089    1.118716   -6.123411
     12          1           0       -4.385701    1.065678   -6.089955
     13          1           0       -4.792312    4.616048   -5.775368
     14          1           0       -4.442542    3.129513   -4.931927
     15          1           0       -6.435833    2.100889   -8.875302
     16          1           0       -6.492138    0.583319   -9.712628
     17          7           0       -6.065211   -1.487036   -7.245094
     18          6           0       -5.823455   -2.762992   -6.583464
     19          6           0       -6.738122   -3.884752   -7.098739
     20          8           0       -7.354697   -4.615297   -6.306992
     21          6           0       -5.948128   -2.616641   -5.050562
     22          6           0       -5.153156   -1.452633   -4.493121
     23          6           0       -3.766496   -1.354762   -4.685846
     24          6           0       -5.797970   -0.446504   -3.762968
     25          6           0       -3.046128   -0.282693   -4.157570
     26          6           0       -5.080659    0.625353   -3.223701
     27          6           0       -3.700331    0.710625   -3.419576
     28          1           0       -6.935112   -0.989462   -7.029309
     29          1           0       -4.799016   -3.044245   -6.851758
     30          1           0       -7.005702   -2.487709   -4.795496
     31          1           0       -5.639514   -3.561859   -4.591295
     32          1           0       -3.242452   -2.116660   -5.256456
     33          1           0       -6.872588   -0.503572   -3.606349
     34          1           0       -1.972218   -0.228735   -4.311692
     35          1           0       -5.600335    1.381721   -2.641526
     36          1           0       -3.131977    1.527943   -2.982572
     37          7           0       -6.851163   -4.100677   -8.434015
     38          6           0       -6.423701   -3.288493   -9.568692
     39          6           0       -7.282680   -2.023459   -9.798377
     40          8           0       -6.817175   -1.095879  -10.470152
     41          6           0       -6.443878   -4.147240  -10.852766
     42          6           0       -7.834857   -4.694272  -11.184549
     43          7           0       -8.167424   -4.724590  -12.489310
     44          8           0       -8.608834   -5.095036  -10.302065
     45          1           0       -7.492416   -4.848304   -8.688951
     46          1           0       -5.402656   -2.930309   -9.416647
     47          1           0       -5.770131   -5.002500  -10.719905
     48          1           0       -6.050915   -3.537774  -11.671262
     49          1           0       -9.043551   -5.153609  -12.758939
     50          1           0       -7.540525   -4.417706  -13.219135
     51          7           0       -8.520244   -2.047779   -9.269658
     52          6           0       -9.461677   -0.927947   -9.230030
     53          6           0       -9.520936   -0.441749   -7.734356
     54          8           0      -10.553715   -0.611727   -7.056307
     55          6           0      -10.810032   -1.238434   -9.945113
     56          6           0      -11.219643   -2.718274  -10.140388
     57          6           0      -11.989877   -3.355006   -8.970057
     58          7           0      -11.384412   -3.085098   -7.668539
     59          6           0      -10.419812   -3.780585   -7.067514
     60          7           0       -9.988544   -4.974379   -7.521788
     61          7           0       -9.884456   -3.285347   -5.935987
     62          8           0       -8.432324    0.061748   -7.299662
     63          1           0       -8.767614   -2.885127   -8.762297
     64          1           0       -8.972271   -0.126412   -9.788009
     65          1           0      -11.600406   -0.688882   -9.421298
     66          1           0      -10.739796   -0.798142  -10.944663
     67          1           0      -11.876514   -2.778443  -11.016239
     68          1           0      -10.341180   -3.324801  -10.382755
     69          1           0      -13.000779   -2.939062   -8.919610
     70          1           0      -12.105668   -4.434705   -9.109388
     71          1           0      -11.408454   -2.091741   -7.384540
     72          1           0       -9.152576   -5.353073   -7.080619
     73          1           0      -10.134110   -5.232153   -8.489195
     74          1           0       -9.018409   -3.690353   -5.593532
     75          1           0      -10.104772   -2.325369   -5.687791
 ---------------------------------------------------------------------

 SCF Done:  E(RB3LYP) =  -1917.54512970     A.U. after    2 cycles

 Alpha  occ. eigenvalues --  -19.24947 -19.24437 -19.23844 -19.22921 -19.22501
 Alpha  occ. eigenvalues --  -19.21354 -19.21158 -14.51574 -14.48710 -14.48362
 Alpha  occ. eigenvalues --  -14.48278 -14.47957 -14.47642 -14.47615 -14.46637
 Alpha  occ. eigenvalues --  -14.46125 -10.44640 -10.42552 -10.41514 -10.41015
 Alpha  occ. eigenvalues --  -10.40216 -10.40070 -10.39216 -10.36116 -10.36111
 Alpha  occ. eigenvalues --  -10.34681 -10.33759 -10.33726 -10.32740 -10.30852
 Alpha  occ. eigenvalues --  -10.29424 -10.29413 -10.29307 -10.29222 -10.28372
 Alpha  occ. eigenvalues --  -10.28301 -10.28235 -10.28183 -10.28109  -1.16686
 Alpha  occ. eigenvalues --   -1.16083  -1.15606  -1.14915  -1.14506  -1.14094
 Alpha  occ. eigenvalues --   -1.13249  -1.07877  -1.05975  -1.05427  -1.03928
 Alpha  occ. eigenvalues --   -1.03489  -1.03121  -1.02724  -1.01238  -1.01084
 Alpha  occ. eigenvalues --   -0.94908  -0.91056  -0.90158  -0.89692  -0.88204
 Alpha  occ. eigenvalues --   -0.85363  -0.83920  -0.83579  -0.80556  -0.79054
 Alpha  occ. eigenvalues --   -0.78532  -0.76625  -0.75057  -0.72818  -0.71355
 Alpha  occ. eigenvalues --   -0.71027  -0.70470  -0.70323  -0.69844  -0.69549
 Alpha  occ. eigenvalues --   -0.69066  -0.68793  -0.67209  -0.66816  -0.66343
 Alpha  occ. eigenvalues --   -0.66273  -0.65327  -0.63872  -0.63563  -0.62653
 Alpha  occ. eigenvalues --   -0.62010  -0.61301  -0.61249  -0.60570  -0.59865
 Alpha  occ. eigenvalues --   -0.58990  -0.58662  -0.58395  -0.58145  -0.57659
 Alpha  occ. eigenvalues --   -0.56840  -0.56516  -0.56402  -0.55313  -0.55021
 Alpha  occ. eigenvalues --   -0.54945  -0.54515  -0.54140  -0.53945  -0.53099
 Alpha  occ. eigenvalues --   -0.52899  -0.52679  -0.52336  -0.52162  -0.51652
 Alpha  occ. eigenvalues --   -0.51386  -0.51065  -0.50774  -0.50570  -0.49832
 Alpha  occ. eigenvalues --   -0.49639  -0.49444  -0.49001  -0.48504  -0.47882
 Alpha  occ. eigenvalues --   -0.47759  -0.46786  -0.46588  -0.46104  -0.44775
 Alpha  occ. eigenvalues --   -0.44544  -0.44384  -0.43306  -0.43006  -0.41004
 Alpha  occ. eigenvalues --   -0.40057  -0.39720  -0.39232  -0.39015  -0.38763
 Alpha  occ. eigenvalues --   -0.37503  -0.37365  -0.37289  -0.37015  -0.36317
 Alpha  occ. eigenvalues --   -0.36270  -0.35752  -0.35230  -0.34328  -0.34277
 Alpha  occ. eigenvalues --   -0.33868
 Alpha virt. eigenvalues --   -0.11687  -0.10850  -0.10772  -0.09958  -0.09798
 Alpha virt. eigenvalues --   -0.09554  -0.09363  -0.07479  -0.07064  -0.04391
 Alpha virt. eigenvalues --   -0.03331  -0.01968  -0.01725  -0.00884  -0.00333

 Mulliken charges:
               1
     1  N   -0.813653
     2  C   -0.109910
     3  C    0.630597
     4  O   -0.514651
     5  C   -0.415408
     6  C    0.638015
     7  N   -0.741700
     8  O   -0.534169
     9  H    0.430524
    10  H    0.217052
    11  H    0.218790
    12  H    0.212197
    13  H    0.365986
    14  H    0.357712
    15  H    0.418556
    16  H    0.427361
    17  N   -0.651500
    18  C   -0.081199
    19  C    0.625743
    20  O   -0.555542
    21  C   -0.356035
    22  C    0.173296
    23  C   -0.179004
    24  C   -0.197241
    25  C   -0.138151
    26  C   -0.136854
    27  C   -0.159156
    28  H    0.389846
    29  H    0.219969
    30  H    0.144314
    31  H    0.194876
    32  H    0.152335
    33  H    0.143318
    34  H    0.158263
    35  H    0.152043
    36  H    0.150153
    37  N   -0.632174
    38  C   -0.060732
    39  C    0.642038
    40  O   -0.583272
    41  C   -0.395673
    42  C    0.626532
    43  N   -0.725787
    44  O   -0.560734
    45  H    0.370216
    46  H    0.221299
    47  H    0.217622
    48  H    0.197630
    49  H    0.366359
    50  H    0.367960
    51  N   -0.605475
    52  C   -0.059054
    53  C    0.602603
    54  O   -0.553250
    55  C   -0.301147
    56  C   -0.302054
    57  C   -0.178669
    58  N   -0.592150
    59  C    0.718882
    60  N   -0.767816
    61  N   -0.780935
    62  O   -0.604655
    63  H    0.361124
    64  H    0.169793
    65  H    0.177861
    66  H    0.166024
    67  H    0.166677
    68  H    0.165533
    69  H    0.193974
    70  H    0.174162
    71  H    0.403649
    72  H    0.385948
    73  H    0.386721
    74  H    0.398261
    75  H    0.385934
 Sum of Mulliken charges =   1.00000

 Dipole moment (field-independent basis, Debye):
    X=            -35.8754    Y=             -9.8177    Z=            -41.6216  Tot=             55.8192
 Quadrupole moment (field-independent basis, Debye-Ang):
   XX=             77.8062   YY=           -159.6229   ZZ=            191.3681
   XY=            103.9302   XZ=            340.3786   YZ=            126.5137

 Normal termination of Gaussian 16 at Fri Jun  3 06:00:48 2022.
