 Gaussian 16, Revision C.01,
 Gaussian 16:  ES64L-G16RevC.01  3-Jul-2019

 ----------------------------------------------------------------------
 # B3LYP/6-31G* empiricaldispersion=gd3 guess=read geom=check nosymm in
 tegral(ultrafinegrid)
 ----------------------------------------------------------------------

 ------------------------------------------------------
 Candidate Structure: Conf:355 Charge calc in gas phase
 ------------------------------------------------------
 Structure from the checkpoint file:  "conf-355.chk"
 Charge =  1 Multiplicity = 1

                          Input orientation:
 ---------------------------------------------------------------------
 Center     Atomic      Atomic             Coordinates (Angstroms)
 Number     Number       Type             X           Y           Z
 ---------------------------------------------------------------------
      1          7           0       -7.882029   -2.998728   -5.270129
      2          6           0       -8.408276   -1.627515   -4.958925
      3          6           0       -8.756816   -0.789958   -6.199996
      4          8           0       -9.852035   -0.246050   -6.273295
      5          6           0       -7.378756   -0.883071   -4.101822
      6          6           0       -7.136156   -1.579779   -2.766396
      7          7           0       -6.650133   -0.788213   -1.788475
      8          8           0       -7.350961   -2.786675   -2.612711
      9          1           0       -6.966937   -2.931471   -5.814040
     10          1           0       -9.343286   -1.760185   -4.412828
     11          1           0       -6.424599   -0.819371   -4.638130
     12          1           0       -7.719386    0.145294   -3.954504
     13          1           0       -6.415665   -1.200156   -0.894853
     14          1           0       -6.480650    0.197106   -1.937377
     15          1           0       -7.712513   -3.443272   -4.347927
     16          1           0       -8.537903   -3.522233   -5.871138
     17          7           0       -7.771642   -0.627617   -7.129176
     18          6           0       -7.821960    0.494285   -8.058175
     19          6           0       -7.719810    0.057282   -9.527513
     20          8           0       -6.928618    0.617534  -10.302717
     21          6           0       -6.730350    1.534020   -7.720200
     22          6           0       -6.707598    1.924820   -6.255893
     23          6           0       -7.836736    2.471831   -5.627132
     24          6           0       -5.542140    1.749102   -5.499579
     25          6           0       -7.797370    2.837182   -4.280911
     26          6           0       -5.493624    2.121246   -4.152976
     27          6           0       -6.622858    2.667395   -3.538593
     28          1           0       -6.876777   -1.112810   -7.007922
     29          1           0       -8.815636    0.937987   -7.930323
     30          1           0       -5.754629    1.121606   -7.999493
     31          1           0       -6.882998    2.409408   -8.360496
     32          1           0       -8.756882    2.610546   -6.188237
     33          1           0       -4.658399    1.323313   -5.968934
     34          1           0       -8.679722    3.265669   -3.814224
     35          1           0       -4.570541    1.995959   -3.593238
     36          1           0       -6.585469    2.982071   -2.498599
     37          7           0       -8.524553   -0.931534   -9.993364
     38          6           0       -9.371503   -1.883685   -9.282116
     39          6           0       -8.590094   -2.995963   -8.545114
     40          8           0       -9.148744   -3.619332   -7.635330
     41          6           0      -10.356857   -2.538402  -10.275606
     42          6           0       -9.652784   -3.308042  -11.396271
     43          7           0      -10.230812   -4.462220  -11.780593
     44          8           0       -8.613069   -2.888101  -11.926396
     45          1           0       -8.376038   -1.171679  -10.970799
     46          1           0       -9.955529   -1.372212   -8.513234
     47          1           0      -10.968188   -1.754796  -10.739601
     48          1           0      -11.025982   -3.189249   -9.705976
     49          1           0       -9.844497   -4.960616  -12.572242
     50          1           0      -11.086509   -4.806852  -11.369696
     51          7           0       -7.342665   -3.234748   -8.990960
     52          6           0       -6.364106   -4.129387   -8.371183
     53          6           0       -5.271162   -3.211605   -7.707769
     54          8           0       -4.114845   -3.170671   -8.173210
     55          6           0       -5.878426   -5.259173   -9.327113
     56          6           0       -6.030767   -5.052333  -10.853544
     57          6           0       -4.867229   -4.319604  -11.544881
     58          7           0       -4.439694   -3.118138  -10.832948
     59          6           0       -4.936964   -1.887898  -10.953805
     60          7           0       -5.812506   -1.545688  -11.920065
     61          7           0       -4.513044   -0.939931  -10.097201
     62          8           0       -5.694684   -2.506864   -6.732356
     63          1           0       -7.029253   -2.658644   -9.758856
     64          1           0       -6.898563   -4.605730   -7.546116
     65          1           0       -4.836508   -5.486147   -9.074191
     66          1           0       -6.458226   -6.151837   -9.072414
     67          1           0       -6.103510   -6.038893  -11.326438
     68          1           0       -6.975229   -4.544539  -11.073805
     69          1           0       -3.988427   -4.970510  -11.583823
     70          1           0       -5.113557   -4.069468  -12.581857
     71          1           0       -4.018072   -3.298198   -9.906893
     72          1           0       -6.243643   -0.626882  -11.837540
     73          1           0       -6.369174   -2.256909  -12.375809
     74          1           0       -5.033760   -0.069691  -10.043463
     75          1           0       -3.978005   -1.238403   -9.286961
 ---------------------------------------------------------------------

 SCF Done:  E(RB3LYP) =  -1917.54512806     A.U. after    3 cycles

 Alpha  occ. eigenvalues --  -19.24946 -19.24434 -19.23849 -19.22917 -19.22500
 Alpha  occ. eigenvalues --  -19.21353 -19.21157 -14.51577 -14.48711 -14.48361
 Alpha  occ. eigenvalues --  -14.48283 -14.47957 -14.47645 -14.47606 -14.46630
 Alpha  occ. eigenvalues --  -14.46122 -10.44638 -10.42552 -10.41512 -10.41021
 Alpha  occ. eigenvalues --  -10.40213 -10.40069 -10.39216 -10.36115 -10.36114
 Alpha  occ. eigenvalues --  -10.34679 -10.33765 -10.33728 -10.32741 -10.30852
 Alpha  occ. eigenvalues --  -10.29422 -10.29420 -10.29304 -10.29228 -10.28370
 Alpha  occ. eigenvalues --  -10.28300 -10.28234 -10.28181 -10.28108  -1.16685
 Alpha  occ. eigenvalues --   -1.16082  -1.15609  -1.14912  -1.14507  -1.14093
 Alpha  occ. eigenvalues --   -1.13250  -1.07880  -1.05971  -1.05425  -1.03928
 Alpha  occ. eigenvalues --   -1.03489  -1.03120  -1.02726  -1.01235  -1.01081
 Alpha  occ. eigenvalues --   -0.94907  -0.91057  -0.90157  -0.89694  -0.88203
 Alpha  occ. eigenvalues --   -0.85363  -0.83918  -0.83578  -0.80557  -0.79054
 Alpha  occ. eigenvalues --   -0.78535  -0.76623  -0.75057  -0.72820  -0.71353
 Alpha  occ. eigenvalues --   -0.71028  -0.70469  -0.70323  -0.69842  -0.69554
 Alpha  occ. eigenvalues --   -0.69065  -0.68794  -0.67208  -0.66817  -0.66343
 Alpha  occ. eigenvalues --   -0.66273  -0.65328  -0.63869  -0.63562  -0.62652
 Alpha  occ. eigenvalues --   -0.62010  -0.61300  -0.61246  -0.60568  -0.59863
 Alpha  occ. eigenvalues --   -0.58991  -0.58660  -0.58397  -0.58146  -0.57663
 Alpha  occ. eigenvalues --   -0.56839  -0.56515  -0.56400  -0.55313  -0.55021
 Alpha  occ. eigenvalues --   -0.54946  -0.54516  -0.54143  -0.53948  -0.53099
 Alpha  occ. eigenvalues --   -0.52903  -0.52680  -0.52335  -0.52162  -0.51650
 Alpha  occ. eigenvalues --   -0.51385  -0.51064  -0.50772  -0.50570  -0.49829
 Alpha  occ. eigenvalues --   -0.49638  -0.49443  -0.49001  -0.48506  -0.47880
 Alpha  occ. eigenvalues --   -0.47759  -0.46784  -0.46586  -0.46106  -0.44776
 Alpha  occ. eigenvalues --   -0.44543  -0.44389  -0.43304  -0.43006  -0.41004
 Alpha  occ. eigenvalues --   -0.40059  -0.39718  -0.39239  -0.39015  -0.38762
 Alpha  occ. eigenvalues --   -0.37501  -0.37363  -0.37289  -0.37014  -0.36316
 Alpha  occ. eigenvalues --   -0.36268  -0.35752  -0.35228  -0.34327  -0.34276
 Alpha  occ. eigenvalues --   -0.33865
 Alpha virt. eigenvalues --   -0.11690  -0.10852  -0.10774  -0.09955  -0.09796
 Alpha virt. eigenvalues --   -0.09551  -0.09358  -0.07479  -0.07062  -0.04395
 Alpha virt. eigenvalues --   -0.03331  -0.01967  -0.01723  -0.00883  -0.00337

 Mulliken charges:
               1
     1  N   -0.813560
     2  C   -0.109921
     3  C    0.630587
     4  O   -0.514571
     5  C   -0.415426
     6  C    0.637975
     7  N   -0.741721
     8  O   -0.534156
     9  H    0.430449
    10  H    0.217059
    11  H    0.218839
    12  H    0.212211
    13  H    0.365977
    14  H    0.357710
    15  H    0.418530
    16  H    0.427456
    17  N   -0.651739
    18  C   -0.081149
    19  C    0.625815
    20  O   -0.555576
    21  C   -0.356144
    22  C    0.173310
    23  C   -0.178916
    24  C   -0.197302
    25  C   -0.138112
    26  C   -0.136880
    27  C   -0.159137
    28  H    0.389937
    29  H    0.220014
    30  H    0.144238
    31  H    0.194915
    32  H    0.152288
    33  H    0.143381
    34  H    0.158263
    35  H    0.152045
    36  H    0.150150
    37  N   -0.631941
    38  C   -0.060647
    39  C    0.642082
    40  O   -0.583285
    41  C   -0.395704
    42  C    0.626622
    43  N   -0.725823
    44  O   -0.560824
    45  H    0.370084
    46  H    0.221241
    47  H    0.217649
    48  H    0.197582
    49  H    0.366345
    50  H    0.367949
    51  N   -0.605594
    52  C   -0.058974
    53  C    0.602633
    54  O   -0.553308
    55  C   -0.301234
    56  C   -0.302046
    57  C   -0.178587
    58  N   -0.592144
    59  C    0.718842
    60  N   -0.767747
    61  N   -0.781091
    62  O   -0.604592
    63  H    0.361135
    64  H    0.169823
    65  H    0.177881
    66  H    0.166058
    67  H    0.166728
    68  H    0.165425
    69  H    0.193996
    70  H    0.174127
    71  H    0.403569
    72  H    0.385986
    73  H    0.386638
    74  H    0.398278
    75  H    0.386028
 Sum of Mulliken charges =   1.00000

 Dipole moment (field-independent basis, Debye):
    X=            -37.1941    Y=            -10.7088    Z=            -40.5841  Tot=             56.0817
 Quadrupole moment (field-independent basis, Debye-Ang):
   XX=             80.4826   YY=           -165.8639   ZZ=            201.0390
   XY=             94.4463   XZ=            329.9306   YZ=            136.3249

 Normal termination of Gaussian 16 at Fri Jun  3 06:01:07 2022.
