 Gaussian 16, Revision C.01,
 Gaussian 16:  ES64L-G16RevC.01  3-Jul-2019

 ----------------------------------------------------------------------
 # B3LYP/6-31G* empiricaldispersion=gd3 guess=read geom=check nosymm in
 tegral(ultrafinegrid)
 ----------------------------------------------------------------------

 ------------------------------------------------------
 Candidate Structure: Conf:112 Charge calc in gas phase
 ------------------------------------------------------
 Structure from the checkpoint file:  "conf-112.chk"
 Charge =  1 Multiplicity = 1

                          Input orientation:
 ---------------------------------------------------------------------
 Center     Atomic      Atomic             Coordinates (Angstroms)
 Number     Number       Type             X           Y           Z
 ---------------------------------------------------------------------
      1          7           0       -9.710677   -0.800654   -9.082751
      2          6           0       -9.659185    0.193776   -7.959220
      3          6           0       -8.245099    0.459042   -7.417534
      4          8           0       -7.849402    1.612660   -7.301979
      5          6           0      -10.568274   -0.290937   -6.824672
      6          6           0      -12.025936   -0.392178   -7.263610
      7          7           0      -12.929273   -0.336220   -6.263603
      8          8           0      -12.340851   -0.538438   -8.449260
      9          1           0       -9.367477   -1.754555   -8.750587
     10          1           0      -10.012151    1.145745   -8.358262
     11          1           0      -10.240136   -1.279128   -6.481380
     12          1           0      -10.459015    0.384265   -5.971788
     13          1           0      -13.910190   -0.452773   -6.481433
     14          1           0      -12.648399   -0.217745   -5.299847
     15          1           0      -10.711273   -0.859670   -9.351319
     16          1           0       -9.087072   -0.521667   -9.856560
     17          7           0       -7.529027   -0.627251   -7.008138
     18          6           0       -6.427074   -0.463392   -6.068328
     19          6           0       -5.111913   -1.072203   -6.578626
     20          8           0       -4.432810   -1.815761   -5.852910
     21          6           0       -6.797041   -1.043291   -4.684922
     22          6           0       -8.142512   -0.566221   -4.175477
     23          6           0       -8.416854    0.799134   -4.001983
     24          6           0       -9.143824   -1.493325   -3.860756
     25          6           0       -9.656707    1.222781   -3.521719
     26          6           0      -10.384741   -1.075789   -3.370864
     27          6           0      -10.645324    0.285693   -3.199461
     28          1           0       -7.918589   -1.567023   -7.134589
     29          1           0       -6.264347    0.617417   -5.991079
     30          1           0       -6.803118   -2.136641   -4.753149
     31          1           0       -5.995806   -0.788733   -3.982917
     32          1           0       -7.660991    1.540266   -4.247278
     33          1           0       -8.950699   -2.555377   -3.992407
     34          1           0       -9.847189    2.283748   -3.387511
     35          1           0      -11.137567   -1.815709   -3.112296
     36          1           0      -11.598928    0.616872   -2.795752
     37          7           0       -4.670444   -0.770933   -7.826326
     38          6           0       -5.345260   -0.115427   -8.941936
     39          6           0       -6.413131   -0.991740   -9.636594
     40          8           0       -7.279907   -0.445327  -10.328363
     41          6           0       -4.299123    0.323957   -9.990305
     42          6           0       -3.503176   -0.849087  -10.568597
     43          7           0       -3.214948   -0.783330  -11.882576
     44          8           0       -3.136860   -1.802390   -9.864745
     45          1           0       -3.803355   -1.232647   -8.091046
     46          1           0       -5.872972    0.776568   -8.595696
     47          1           0       -3.587357    1.011262   -9.516951
     48          1           0       -4.822010    0.875528  -10.776536
     49          1           0       -2.621435   -1.496190  -12.287456
     50          1           0       -3.491899   -0.004955  -12.463322
     51          7           0       -6.288712   -2.320792   -9.463675
     52          6           0       -7.247292   -3.338615   -9.896432
     53          6           0       -7.951292   -3.876085   -8.595469
     54          8           0       -7.736018   -5.037772   -8.196113
     55          6           0       -6.628485   -4.385019  -10.870260
     56          6           0       -5.091747   -4.570459  -10.876374
     57          6           0       -4.539824   -5.578846   -9.853172
     58          7           0       -5.100767   -5.406596   -8.515574
     59          6           0       -4.661901   -4.594700   -7.554575
     60          7           0       -3.489269   -3.934467   -7.635267
     61          7           0       -5.405030   -4.463091   -6.439853
     62          8           0       -8.677785   -3.016490   -7.994732
     63          1           0       -5.516132   -2.621350   -8.887054
     64          1           0       -8.013330   -2.789846  -10.448938
     65          1           0       -7.128550   -5.343883  -10.692549
     66          1           0       -6.910733   -4.073554  -11.880805
     67          1           0       -4.795498   -4.936422  -11.866583
     68          1           0       -4.593774   -3.603395  -10.753260
     69          1           0       -4.801288   -6.597312  -10.156247
     70          1           0       -3.446742   -5.540774   -9.805497
     71          1           0       -6.111601   -5.610295   -8.447131
     72          1           0       -3.314821   -3.230046   -6.921074
     73          1           0       -3.062751   -3.765770   -8.537005
     74          1           0       -5.194534   -3.697417   -5.806699
     75          1           0       -6.348412   -4.839446   -6.452161
 ---------------------------------------------------------------------

 SCF Done:  E(RB3LYP) =  -1917.54513259     A.U. after    3 cycles

 Alpha  occ. eigenvalues --  -19.24945 -19.24434 -19.23851 -19.22920 -19.22498
 Alpha  occ. eigenvalues --  -19.21361 -19.21165 -14.51568 -14.48709 -14.48368
 Alpha  occ. eigenvalues --  -14.48286 -14.47959 -14.47648 -14.47611 -14.46634
 Alpha  occ. eigenvalues --  -14.46118 -10.44641 -10.42550 -10.41513 -10.41022
 Alpha  occ. eigenvalues --  -10.40215 -10.40066 -10.39223 -10.36113 -10.36112
 Alpha  occ. eigenvalues --  -10.34681 -10.33764 -10.33734 -10.32739 -10.30846
 Alpha  occ. eigenvalues --  -10.29422 -10.29418 -10.29306 -10.29228 -10.28372
 Alpha  occ. eigenvalues --  -10.28302 -10.28236 -10.28182 -10.28111  -1.16685
 Alpha  occ. eigenvalues --   -1.16082  -1.15611  -1.14913  -1.14511  -1.14090
 Alpha  occ. eigenvalues --   -1.13254  -1.07876  -1.05976  -1.05430  -1.03931
 Alpha  occ. eigenvalues --   -1.03487  -1.03121  -1.02728  -1.01240  -1.01078
 Alpha  occ. eigenvalues --   -0.94908  -0.91056  -0.90155  -0.89695  -0.88202
 Alpha  occ. eigenvalues --   -0.85366  -0.83919  -0.83580  -0.80557  -0.79052
 Alpha  occ. eigenvalues --   -0.78535  -0.76623  -0.75061  -0.72820  -0.71354
 Alpha  occ. eigenvalues --   -0.71028  -0.70469  -0.70325  -0.69842  -0.69553
 Alpha  occ. eigenvalues --   -0.69065  -0.68792  -0.67210  -0.66816  -0.66344
 Alpha  occ. eigenvalues --   -0.66274  -0.65329  -0.63868  -0.63562  -0.62653
 Alpha  occ. eigenvalues --   -0.62010  -0.61304  -0.61246  -0.60571  -0.59865
 Alpha  occ. eigenvalues --   -0.58991  -0.58661  -0.58395  -0.58146  -0.57661
 Alpha  occ. eigenvalues --   -0.56841  -0.56515  -0.56401  -0.55316  -0.55022
 Alpha  occ. eigenvalues --   -0.54946  -0.54516  -0.54144  -0.53947  -0.53100
 Alpha  occ. eigenvalues --   -0.52902  -0.52682  -0.52337  -0.52162  -0.51651
 Alpha  occ. eigenvalues --   -0.51385  -0.51065  -0.50771  -0.50570  -0.49832
 Alpha  occ. eigenvalues --   -0.49642  -0.49444  -0.49003  -0.48510  -0.47878
 Alpha  occ. eigenvalues --   -0.47757  -0.46784  -0.46585  -0.46104  -0.44780
 Alpha  occ. eigenvalues --   -0.44544  -0.44388  -0.43306  -0.43007  -0.41006
 Alpha  occ. eigenvalues --   -0.40058  -0.39721  -0.39239  -0.39017  -0.38764
 Alpha  occ. eigenvalues --   -0.37503  -0.37362  -0.37292  -0.37017  -0.36316
 Alpha  occ. eigenvalues --   -0.36271  -0.35751  -0.35235  -0.34331  -0.34280
 Alpha  occ. eigenvalues --   -0.33868
 Alpha virt. eigenvalues --   -0.11689  -0.10852  -0.10770  -0.09961  -0.09799
 Alpha virt. eigenvalues --   -0.09555  -0.09366  -0.07477  -0.07064  -0.04395
 Alpha virt. eigenvalues --   -0.03333  -0.01965  -0.01721  -0.00884  -0.00333

 Mulliken charges:
               1
     1  N   -0.813757
     2  C   -0.109821
     3  C    0.630453
     4  O   -0.514570
     5  C   -0.415469
     6  C    0.637906
     7  N   -0.741721
     8  O   -0.534158
     9  H    0.430482
    10  H    0.217050
    11  H    0.218903
    12  H    0.212170
    13  H    0.365962
    14  H    0.357695
    15  H    0.418519
    16  H    0.427440
    17  N   -0.651681
    18  C   -0.081088
    19  C    0.625659
    20  O   -0.555531
    21  C   -0.356216
    22  C    0.173389
    23  C   -0.178964
    24  C   -0.197270
    25  C   -0.138148
    26  C   -0.136825
    27  C   -0.159162
    28  H    0.389921
    29  H    0.219987
    30  H    0.144320
    31  H    0.194874
    32  H    0.152292
    33  H    0.143398
    34  H    0.158267
    35  H    0.152059
    36  H    0.150148
    37  N   -0.632044
    38  C   -0.060657
    39  C    0.642065
    40  O   -0.583237
    41  C   -0.395681
    42  C    0.626546
    43  N   -0.725815
    44  O   -0.560790
    45  H    0.370102
    46  H    0.221342
    47  H    0.217604
    48  H    0.197645
    49  H    0.366346
    50  H    0.367956
    51  N   -0.605609
    52  C   -0.058904
    53  C    0.602514
    54  O   -0.553137
    55  C   -0.301310
    56  C   -0.301925
    57  C   -0.178618
    58  N   -0.592168
    59  C    0.718621
    60  N   -0.767599
    61  N   -0.780913
    62  O   -0.604569
    63  H    0.361182
    64  H    0.169714
    65  H    0.177862
    66  H    0.166110
    67  H    0.166726
    68  H    0.165497
    69  H    0.193985
    70  H    0.174182
    71  H    0.403630
    72  H    0.385750
    73  H    0.386790
    74  H    0.398384
    75  H    0.385911
 Sum of Mulliken charges =   1.00000

 Dipole moment (field-independent basis, Debye):
    X=            -31.4427    Y=             -7.1969    Z=            -41.3842  Tot=             52.4699
 Quadrupole moment (field-independent basis, Debye-Ang):
   XX=             49.5206   YY=           -197.2008   ZZ=            181.6639
   XY=             30.4007   XZ=            220.4415   YZ=             72.6613

 Normal termination of Gaussian 16 at Fri Jun  3 06:01:08 2022.
