 Gaussian 16, Revision C.01,
 Gaussian 16:  ES64L-G16RevC.01  3-Jul-2019

 ----------------------------------------------------------------------
 # B3LYP/6-31G* empiricaldispersion=gd3 guess=read geom=check nosymm in
 tegral(ultrafinegrid)
 ----------------------------------------------------------------------

 ------------------------------------------------------
 Candidate Structure: Conf:291 Charge calc in gas phase
 ------------------------------------------------------
 Structure from the checkpoint file:  "conf-291.chk"
 Charge =  1 Multiplicity = 1

                          Input orientation:
 ---------------------------------------------------------------------
 Center     Atomic      Atomic             Coordinates (Angstroms)
 Number     Number       Type             X           Y           Z
 ---------------------------------------------------------------------
      1          7           0       -8.790418    0.904006   -8.168823
      2          6           0       -8.050579    0.756709   -9.466839
      3          6           0       -7.595223   -0.679296   -9.773059
      4          8           0       -7.850685   -1.173894  -10.864326
      5          6           0       -6.838931    1.694949   -9.457325
      6          6           0       -7.251226    3.159525   -9.345024
      7          7           0       -6.343341    4.046008   -9.802236
      8          8           0       -8.330908    3.495987   -8.847608
      9          1           0       -8.159861    0.641835   -7.349268
     10          1           0       -8.744692    1.028724  -10.263251
     11          1           0       -6.187206    1.452272   -8.609703
     12          1           0       -6.248833    1.518760  -10.360650
     13          1           0       -6.531957    5.035165   -9.706128
     14          1           0       -5.464757    3.747854  -10.203402
     15          1           0       -9.045277    1.908246   -8.110747
     16          1           0       -9.600408    0.265442   -8.126812
     17          7           0       -6.842590   -1.302351   -8.821444
     18          6           0       -5.984042   -2.422024   -9.186841
     19          6           0       -6.246024   -3.677125   -8.340042
     20          8           0       -5.306251   -4.298884   -7.819426
     21          6           0       -4.495343   -2.015110   -9.114596
     22          6           0       -4.192404   -0.719945   -9.841449
     23          6           0       -4.469123   -0.566619  -11.208717
     24          6           0       -3.619255    0.355771   -9.151837
     25          6           0       -4.174871    0.628070  -11.867105
     26          6           0       -3.314149    1.552062   -9.807605
     27          6           0       -3.591303    1.692013  -11.169400
     28          1           0       -6.665289   -0.831489   -7.928206
     29          1           0       -6.254249   -2.676368  -10.217833
     30          1           0       -4.210214   -1.914005   -8.061676
     31          1           0       -3.896042   -2.841059   -9.512294
     32          1           0       -4.921675   -1.382363  -11.765955
     33          1           0       -3.401415    0.256724   -8.091019
     34          1           0       -4.389804    0.724502  -12.927508
     35          1           0       -2.848957    2.364486   -9.255664
     36          1           0       -3.334079    2.610159  -11.691778
     37          7           0       -7.515675   -4.130724   -8.182916
     38          6           0       -8.796074   -3.503354   -8.493964
     39          6           0       -9.188979   -2.359122   -7.531265
     40          8           0      -10.038339   -1.536551   -7.892471
     41          6           0       -9.910271   -4.573467   -8.480066
     42          6           0      -10.061417   -5.260446   -7.120217
     43          7           0      -11.320074   -5.537685   -6.729228
     44          8           0       -9.079246   -5.552715   -6.421406
     45          1           0       -7.600291   -4.953487   -7.590413
     46          1           0       -8.768103   -3.056513   -9.490665
     47          1           0       -9.671701   -5.345748   -9.221479
     48          1           0      -10.842630   -4.092397   -8.788362
     49          1           0      -11.460506   -6.063689   -5.876023
     50          1           0      -12.127351   -5.321223   -7.296043
     51          7           0       -8.590188   -2.371010   -6.325857
     52          6           0       -8.687569   -1.325879   -5.305798
     53          6           0       -7.296565   -0.590170   -5.281668
     54          8           0       -6.536763   -0.709801   -4.299961
     55          6           0       -9.256758   -1.845135   -3.952126
     56          6           0       -9.171466   -3.360221   -3.646720
     57          6           0       -7.866145   -3.831370   -2.981687
     58          7           0       -6.667896   -3.300680   -3.626533
     59          6           0       -6.015640   -3.816774   -4.667476
     60          7           0       -6.285514   -5.040295   -5.165010
     61          7           0       -5.018059   -3.098800   -5.216644
     62          8           0       -7.022649    0.055870   -6.347109
     63          1           0       -7.931549   -3.119792   -6.166801
     64          1           0       -9.403040   -0.604364   -5.706712
     65          1           0       -8.787893   -1.266277   -3.148277
     66          1           0      -10.319146   -1.582275   -3.940981
     67          1           0       -9.983858   -3.616070   -2.956229
     68          1           0       -9.357613   -3.940382   -4.556225
     69          1           0       -7.827578   -3.478667   -1.946507
     70          1           0       -7.812134   -4.923996   -2.938967
     71          1           0       -6.555905   -2.276811   -3.542275
     72          1           0       -5.836161   -5.281466   -6.046295
     73          1           0       -7.184916   -5.470842   -4.994131
     74          1           0       -4.664586   -3.379989   -6.126309
     75          1           0       -4.924113   -2.126881   -4.936918
 ---------------------------------------------------------------------

 SCF Done:  E(RB3LYP) =  -1917.54513455     A.U. after    3 cycles

 Alpha  occ. eigenvalues --  -19.24938 -19.24432 -19.23851 -19.22921 -19.22500
 Alpha  occ. eigenvalues --  -19.21357 -19.21162 -14.51577 -14.48705 -14.48372
 Alpha  occ. eigenvalues --  -14.48287 -14.47958 -14.47647 -14.47615 -14.46635
 Alpha  occ. eigenvalues --  -14.46123 -10.44643 -10.42544 -10.41514 -10.41022
 Alpha  occ. eigenvalues --  -10.40216 -10.40069 -10.39221 -10.36116 -10.36110
 Alpha  occ. eigenvalues --  -10.34686 -10.33762 -10.33733 -10.32733 -10.30852
 Alpha  occ. eigenvalues --  -10.29432 -10.29420 -10.29312 -10.29229 -10.28375
 Alpha  occ. eigenvalues --  -10.28306 -10.28241 -10.28186 -10.28117  -1.16680
 Alpha  occ. eigenvalues --   -1.16078  -1.15609  -1.14916  -1.14508  -1.14093
 Alpha  occ. eigenvalues --   -1.13255  -1.07880  -1.05975  -1.05428  -1.03930
 Alpha  occ. eigenvalues --   -1.03483  -1.03122  -1.02729  -1.01242  -1.01082
 Alpha  occ. eigenvalues --   -0.94913  -0.91055  -0.90160  -0.89696  -0.88208
 Alpha  occ. eigenvalues --   -0.85366  -0.83921  -0.83584  -0.80555  -0.79056
 Alpha  occ. eigenvalues --   -0.78536  -0.76625  -0.75062  -0.72819  -0.71357
 Alpha  occ. eigenvalues --   -0.71026  -0.70472  -0.70327  -0.69844  -0.69552
 Alpha  occ. eigenvalues --   -0.69069  -0.68796  -0.67213  -0.66815  -0.66346
 Alpha  occ. eigenvalues --   -0.66274  -0.65328  -0.63871  -0.63562  -0.62656
 Alpha  occ. eigenvalues --   -0.62014  -0.61302  -0.61251  -0.60573  -0.59872
 Alpha  occ. eigenvalues --   -0.58993  -0.58661  -0.58397  -0.58148  -0.57659
 Alpha  occ. eigenvalues --   -0.56841  -0.56516  -0.56402  -0.55316  -0.55020
 Alpha  occ. eigenvalues --   -0.54946  -0.54516  -0.54150  -0.53944  -0.53097
 Alpha  occ. eigenvalues --   -0.52900  -0.52682  -0.52336  -0.52159  -0.51652
 Alpha  occ. eigenvalues --   -0.51388  -0.51068  -0.50769  -0.50574  -0.49834
 Alpha  occ. eigenvalues --   -0.49645  -0.49444  -0.49004  -0.48509  -0.47883
 Alpha  occ. eigenvalues --   -0.47754  -0.46785  -0.46591  -0.46107  -0.44785
 Alpha  occ. eigenvalues --   -0.44549  -0.44387  -0.43311  -0.43013  -0.41004
 Alpha  occ. eigenvalues --   -0.40054  -0.39723  -0.39235  -0.39019  -0.38760
 Alpha  occ. eigenvalues --   -0.37504  -0.37365  -0.37293  -0.37014  -0.36318
 Alpha  occ. eigenvalues --   -0.36270  -0.35754  -0.35233  -0.34331  -0.34282
 Alpha  occ. eigenvalues --   -0.33872
 Alpha virt. eigenvalues --   -0.11688  -0.10850  -0.10766  -0.09962  -0.09805
 Alpha virt. eigenvalues --   -0.09557  -0.09370  -0.07480  -0.07062  -0.04394
 Alpha virt. eigenvalues --   -0.03334  -0.01969  -0.01727  -0.00887  -0.00330

 Mulliken charges:
               1
     1  N   -0.813815
     2  C   -0.109831
     3  C    0.630218
     4  O   -0.514507
     5  C   -0.415430
     6  C    0.637965
     7  N   -0.741728
     8  O   -0.534145
     9  H    0.430478
    10  H    0.217081
    11  H    0.218933
    12  H    0.212098
    13  H    0.365973
    14  H    0.357711
    15  H    0.418524
    16  H    0.427477
    17  N   -0.651748
    18  C   -0.081102
    19  C    0.625674
    20  O   -0.555590
    21  C   -0.356395
    22  C    0.173421
    23  C   -0.178914
    24  C   -0.197403
    25  C   -0.138078
    26  C   -0.136643
    27  C   -0.159272
    28  H    0.390082
    29  H    0.220108
    30  H    0.144103
    31  H    0.195003
    32  H    0.152178
    33  H    0.143530
    34  H    0.158270
    35  H    0.152118
    36  H    0.150115
    37  N   -0.632112
    38  C   -0.060585
    39  C    0.642006
    40  O   -0.583308
    41  C   -0.395675
    42  C    0.626513
    43  N   -0.725795
    44  O   -0.560737
    45  H    0.370186
    46  H    0.221389
    47  H    0.217601
    48  H    0.197585
    49  H    0.366316
    50  H    0.367950
    51  N   -0.605657
    52  C   -0.058728
    53  C    0.602300
    54  O   -0.553105
    55  C   -0.301193
    56  C   -0.301972
    57  C   -0.178666
    58  N   -0.592101
    59  C    0.718859
    60  N   -0.767617
    61  N   -0.781022
    62  O   -0.604554
    63  H    0.361181
    64  H    0.169730
    65  H    0.177799
    66  H    0.166093
    67  H    0.166706
    68  H    0.165456
    69  H    0.193971
    70  H    0.174198
    71  H    0.403594
    72  H    0.385845
    73  H    0.386789
    74  H    0.398451
    75  H    0.385848
 Sum of Mulliken charges =   1.00000

 Dipole moment (field-independent basis, Debye):
    X=            -38.7156    Y=            -10.5131    Z=            -35.5303  Tot=             53.5894
 Quadrupole moment (field-independent basis, Debye-Ang):
   XX=            125.5151   YY=           -137.4685   ZZ=             70.6713
   XY=            124.7602   XZ=            264.9943   YZ=             41.9913

 Normal termination of Gaussian 16 at Fri Jun  3 06:01:15 2022.
