 Gaussian 16, Revision C.01,
 Gaussian 16:  ES64L-G16RevC.01  3-Jul-2019

 ----------------------------------------------------------------------
 # B3LYP/6-31G* empiricaldispersion=gd3 guess=read geom=check nosymm in
 tegral(ultrafinegrid)
 ----------------------------------------------------------------------

 ------------------------------------------------------
 Candidate Structure: Conf:962 Charge calc in gas phase
 ------------------------------------------------------
 Structure from the checkpoint file:  "conf-962.chk"
 Charge =  1 Multiplicity = 1

                          Input orientation:
 ---------------------------------------------------------------------
 Center     Atomic      Atomic             Coordinates (Angstroms)
 Number     Number       Type             X           Y           Z
 ---------------------------------------------------------------------
      1          7           0       -7.843573    0.873770   -8.872771
      2          6           0       -6.580950    1.215888   -8.127109
      3          6           0       -5.538840    0.082980   -8.101366
      4          8           0       -4.418551    0.294483   -8.546486
      5          6           0       -6.938250    1.677781   -6.713845
      6          6           0       -7.773682    2.954204   -6.735318
      7          7           0       -7.746518    3.672289   -5.592065
      8          8           0       -8.440061    3.280507   -7.721787
      9          1           0       -8.461955    0.223334   -8.317769
     10          1           0       -6.107349    2.024046   -8.685875
     11          1           0       -7.509335    0.899060   -6.193733
     12          1           0       -6.016092    1.819302   -6.143890
     13          1           0       -8.291945    4.521928   -5.533195
     14          1           0       -7.158933    3.407742   -4.813246
     15          1           0       -8.352246    1.767360   -8.979325
     16          1           0       -7.623765    0.393534   -9.768653
     17          7           0       -5.915842   -1.096700   -7.531995
     18          6           0       -4.909118   -2.053244   -7.059711
     19          6           0       -5.059877   -3.476608   -7.648446
     20          8           0       -5.099566   -4.449036   -6.908987
     21          6           0       -4.946898   -2.129809   -5.517728
     22          6           0       -4.988867   -0.773250   -4.845414
     23          6           0       -3.962193    0.167334   -5.026359
     24          6           0       -6.068697   -0.425022   -4.023548
     25          6           0       -4.009581    1.410618   -4.394427
     26          6           0       -6.119846    0.815696   -3.380971
     27          6           0       -5.087628    1.738759   -3.563269
     28          1           0       -6.805253   -1.144098   -7.049463
     29          1           0       -3.948110   -1.655908   -7.400883
     30          1           0       -5.822625   -2.720891   -5.233360
     31          1           0       -4.076667   -2.705540   -5.186411
     32          1           0       -3.119164   -0.073179   -5.668615
     33          1           0       -6.875616   -1.139487   -3.875901
     34          1           0       -3.199457    2.119597   -4.540435
     35          1           0       -6.957380    1.052088   -2.729567
     36          1           0       -5.105893    2.694871   -3.045653
     37          7           0       -5.059370   -3.638978   -9.013347
     38          6           0       -5.245264   -2.644101  -10.057445
     39          6           0       -6.698779   -2.140127  -10.181903
     40          8           0       -6.909283   -1.004698  -10.637065
     41          6           0       -4.725024   -3.154857  -11.413407
     42          6           0       -5.444436   -4.413792  -11.904060
     43          7           0       -5.350025   -4.655811  -13.234141
     44          8           0       -6.051341   -5.165053  -11.140805
     45          1           0       -5.204914   -4.602185   -9.304233
     46          1           0       -4.669968   -1.746668   -9.815149
     47          1           0       -3.656780   -3.385330  -11.316047
     48          1           0       -4.819192   -2.344882  -12.144903
     49          1           0       -5.737090   -5.517530  -13.594923
     50          1           0       -4.831868   -4.060214  -13.862913
     51          7           0       -7.674329   -2.972256   -9.755429
     52          6           0       -8.944087   -2.448677   -9.270319
     53          6           0       -8.772632   -2.108573   -7.775713
     54          8           0       -8.245465   -2.989364   -7.056238
     55          6           0      -10.104326   -3.443884   -9.451630
     56          6           0      -11.485639   -2.836085   -9.087046
     57          6           0      -12.107844   -3.313931   -7.764697
     58          7           0      -11.297933   -2.921052   -6.601597
     59          6           0      -10.962136   -3.719060   -5.582950
     60          7           0      -11.769482   -4.740589   -5.234853
     61          7           0       -9.826099   -3.477691   -4.919617
     62          8           0       -9.197714   -0.976687   -7.365333
     63          1           0       -7.363340   -3.835908   -9.325377
     64          1           0       -9.159205   -1.543340   -9.840292
     65          1           0      -10.104217   -3.765224  -10.497852
     66          1           0       -9.898095   -4.335051   -8.844947
     67          1           0      -11.423607   -1.740469   -9.068567
     68          1           0      -12.212589   -3.081928   -9.868560
     69          1           0      -13.118784   -2.899811   -7.667720
     70          1           0      -12.189344   -4.406011   -7.767895
     71          1           0      -10.765572   -2.051717   -6.680645
     72          1           0      -11.455285   -5.458731   -4.598883
     73          1           0      -12.744709   -4.743446   -5.495694
     74          1           0       -9.617515   -4.001884   -4.081007
     75          1           0       -9.034140   -3.132433   -5.499527
 ---------------------------------------------------------------------

 SCF Done:  E(RB3LYP) =  -1917.51859941     A.U. after    3 cycles

 Alpha  occ. eigenvalues --  -19.22105 -19.21850 -19.21778 -19.21766 -19.21304
 Alpha  occ. eigenvalues --  -19.20387 -19.18930 -14.51565 -14.50849 -14.49275
 Alpha  occ. eigenvalues --  -14.48188 -14.45807 -14.45783 -14.45254 -14.44520
 Alpha  occ. eigenvalues --  -14.43210 -10.45971 -10.39688 -10.39123 -10.38802
 Alpha  occ. eigenvalues --  -10.38515 -10.38189 -10.36595 -10.35480 -10.34802
 Alpha  occ. eigenvalues --  -10.32584 -10.32506 -10.32012 -10.30424 -10.30129
 Alpha  occ. eigenvalues --  -10.29261 -10.29255 -10.28339 -10.27875 -10.27734
 Alpha  occ. eigenvalues --  -10.27621 -10.27561 -10.27294 -10.27065  -1.15354
 Alpha  occ. eigenvalues --   -1.14322  -1.13973  -1.13625  -1.13206  -1.12135
 Alpha  occ. eigenvalues --   -1.11003  -1.07566  -1.05711  -1.03946  -1.02643
 Alpha  occ. eigenvalues --   -1.02362  -1.02183  -1.00735  -0.99743  -0.99241
 Alpha  occ. eigenvalues --   -0.94109  -0.90576  -0.89453  -0.87037  -0.86748
 Alpha  occ. eigenvalues --   -0.84953  -0.82956  -0.82318  -0.78843  -0.78376
 Alpha  occ. eigenvalues --   -0.76783  -0.75675  -0.74359  -0.71995  -0.70609
 Alpha  occ. eigenvalues --   -0.70103  -0.69262  -0.69045  -0.68696  -0.68038
 Alpha  occ. eigenvalues --   -0.67570  -0.67041  -0.66919  -0.65854  -0.65435
 Alpha  occ. eigenvalues --   -0.64833  -0.63865  -0.63272  -0.62883  -0.62287
 Alpha  occ. eigenvalues --   -0.61865  -0.61116  -0.59997  -0.59015  -0.58897
 Alpha  occ. eigenvalues --   -0.58457  -0.57439  -0.57021  -0.56304  -0.56045
 Alpha  occ. eigenvalues --   -0.55789  -0.55362  -0.54783  -0.53973  -0.53613
 Alpha  occ. eigenvalues --   -0.53313  -0.53008  -0.52648  -0.52452  -0.51937
 Alpha  occ. eigenvalues --   -0.51611  -0.51312  -0.50767  -0.50381  -0.50349
 Alpha  occ. eigenvalues --   -0.49833  -0.49667  -0.49170  -0.48745  -0.48299
 Alpha  occ. eigenvalues --   -0.47838  -0.47457  -0.46980  -0.46397  -0.46072
 Alpha  occ. eigenvalues --   -0.45977  -0.45658  -0.45247  -0.44834  -0.44405
 Alpha  occ. eigenvalues --   -0.44159  -0.43716  -0.42169  -0.41999  -0.41557
 Alpha  occ. eigenvalues --   -0.38898  -0.38363  -0.37479  -0.37294  -0.37042
 Alpha  occ. eigenvalues --   -0.36585  -0.36106  -0.35677  -0.35436  -0.35128
 Alpha  occ. eigenvalues --   -0.34515  -0.33731  -0.33591  -0.33321  -0.32193
 Alpha  occ. eigenvalues --   -0.31944
 Alpha virt. eigenvalues --   -0.11048  -0.09799  -0.09209  -0.09129  -0.08633
 Alpha virt. eigenvalues --   -0.07401  -0.07017  -0.06234  -0.06063  -0.05793
 Alpha virt. eigenvalues --   -0.02475  -0.01672  -0.00751  -0.00461  -0.00416

 Mulliken charges:
               1
     1  N   -0.818221
     2  C   -0.110203
     3  C    0.636832
     4  O   -0.507742
     5  C   -0.418805
     6  C    0.633556
     7  N   -0.744083
     8  O   -0.534166
     9  H    0.428332
    10  H    0.219460
    11  H    0.209616
    12  H    0.214520
    13  H    0.363188
    14  H    0.356597
    15  H    0.414840
    16  H    0.439205
    17  N   -0.631556
    18  C   -0.083689
    19  C    0.634094
    20  O   -0.500137
    21  C   -0.374111
    22  C    0.170283
    23  C   -0.179066
    24  C   -0.197081
    25  C   -0.137895
    26  C   -0.134665
    27  C   -0.162095
    28  H    0.362864
    29  H    0.207684
    30  H    0.172062
    31  H    0.192093
    32  H    0.154770
    33  H    0.126820
    34  H    0.156068
    35  H    0.142503
    36  H    0.145325
    37  N   -0.639402
    38  C   -0.059069
    39  C    0.639495
    40  O   -0.592242
    41  C   -0.394269
    42  C    0.610020
    43  N   -0.738476
    44  O   -0.525535
    45  H    0.365641
    46  H    0.209959
    47  H    0.205273
    48  H    0.189733
    49  H    0.359077
    50  H    0.354173
    51  N   -0.559288
    52  C   -0.049219
    53  C    0.612369
    54  O   -0.584318
    55  C   -0.288492
    56  C   -0.308148
    57  C   -0.155433
    58  N   -0.605196
    59  C    0.767264
    60  N   -0.750755
    61  N   -0.762887
    62  O   -0.639143
    63  H    0.366143
    64  H    0.154531
    65  H    0.180407
    66  H    0.161382
    67  H    0.170747
    68  H    0.178210
    69  H    0.180699
    70  H    0.174857
    71  H    0.396334
    72  H    0.376321
    73  H    0.380248
    74  H    0.355876
    75  H    0.415920
 Sum of Mulliken charges =   1.00000

 Dipole moment (field-independent basis, Debye):
    X=            -44.6004    Y=             -9.2044    Z=            -34.6187  Tot=             57.2047
 Quadrupole moment (field-independent basis, Debye-Ang):
   XX=            239.1161   YY=           -159.4025   ZZ=             98.5844
   XY=            119.2364   XZ=            293.3448   YZ=             88.3057

 Normal termination of Gaussian 16 at Fri Jun  3 06:01:07 2022.
