 Gaussian 16, Revision C.01,
 Gaussian 16:  ES64L-G16RevC.01  3-Jul-2019

 ----------------------------------------------------------------------
 # B3LYP/6-31G* empiricaldispersion=gd3 guess=read geom=check nosymm in
 tegral(ultrafinegrid)
 ----------------------------------------------------------------------

 -----------------------------------------------------
 Candidate Structure: Conf:33 Charge calc in gas phase
 -----------------------------------------------------
 Structure from the checkpoint file:  "conf-33.chk"
 Charge =  1 Multiplicity = 1

                          Input orientation:
 ---------------------------------------------------------------------
 Center     Atomic      Atomic             Coordinates (Angstroms)
 Number     Number       Type             X           Y           Z
 ---------------------------------------------------------------------
      1          7           0       -8.395967   -3.406660   -9.702035
      2          6           0       -7.970072   -4.335828   -8.602347
      3          6           0       -7.864713   -3.670232   -7.220605
      4          8           0       -8.418836   -4.186889   -6.257950
      5          6           0       -6.625504   -4.967743   -8.978224
      6          6           0       -6.720994   -5.799643  -10.253552
      7          7           0       -5.769025   -6.744995  -10.392202
      8          8           0       -7.596989   -5.595781  -11.100552
      9          1           0       -7.677405   -2.629104   -9.832026
     10          1           0       -8.744246   -5.098944   -8.510845
     11          1           0       -5.875355   -4.183023   -9.131546
     12          1           0       -6.272607   -5.571944   -8.138183
     13          1           0       -5.742832   -7.293972  -11.241424
     14          1           0       -5.059991   -6.892674   -9.687082
     15          1           0       -8.438641   -3.994112  -10.556422
     16          1           0       -9.287892   -2.940923   -9.471637
     17          7           0       -7.072075   -2.564056   -7.129124
     18          6           0       -6.531081   -2.158040   -5.838015
     19          6           0       -6.853319   -0.697011   -5.488484
     20          8           0       -5.963940    0.070483   -5.087532
     21          6           0       -5.008036   -2.410822   -5.779619
     22          6           0       -4.615030   -3.806258   -6.222015
     23          6           0       -5.122845   -4.946877   -5.581228
     24          6           0       -3.723169   -3.980813   -7.287523
     25          6           0       -4.743637   -6.225256   -5.992693
     26          6           0       -3.332657   -5.258535   -7.698791
     27          6           0       -3.842419   -6.386402   -7.051545
     28          1           0       -6.636528   -2.182074   -7.974935
     29          1           0       -7.043638   -2.779470   -5.095213
     30          1           0       -4.505791   -1.674642   -6.416736
     31          1           0       -4.667524   -2.209332   -4.758349
     32          1           0       -5.823388   -4.840214   -4.757448
     33          1           0       -3.322304   -3.108630   -7.798593
     34          1           0       -5.142114   -7.095543   -5.479109
     35          1           0       -2.621769   -5.367477   -8.513558
     36          1           0       -3.524362   -7.382490   -7.349338
     37          7           0       -8.129720   -0.246245   -5.588935
     38          6           0       -9.303759   -0.844159   -6.216530
     39          6           0       -9.273984   -0.821561   -7.762225
     40          8           0      -10.004809   -1.598391   -8.387471
     41          6           0      -10.575474   -0.114372   -5.729987
     42          6           0      -10.582152    1.375060   -6.084340
     43          7           0      -11.768255    1.893751   -6.455990
     44          8           0       -9.554679    2.067210   -6.024344
     45          1           0       -8.249646    0.737398   -5.358334
     46          1           0       -9.389454   -1.896948   -5.936880
     47          1           0      -10.639662   -0.199772   -4.638370
     48          1           0      -11.441784   -0.628197   -6.155756
     49          1           0      -11.834463    2.890359   -6.619530
     50          1           0      -12.615709    1.345739   -6.492512
     51          7           0       -8.463761    0.095278   -8.323217
     52          6           0       -8.158178    0.215793   -9.749500
     53          6           0       -6.675772   -0.278867   -9.935712
     54          8           0       -5.774964    0.528618  -10.238770
     55          6           0       -8.537663    1.606426  -10.339733
     56          6           0       -8.683463    2.805329   -9.371520
     57          6           0       -7.386551    3.576364   -9.068393
     58          7           0       -6.259422    2.703801   -8.749626
     59          6           0       -5.933872    2.209887   -7.555652
     60          7           0       -6.522087    2.615371   -6.412501
     61          7           0       -4.946899    1.296881   -7.488793
     62          8           0       -6.498676   -1.518925   -9.694237
     63          1           0       -7.942864    0.676759   -7.682602
     64          1           0       -8.788402   -0.530519  -10.238454
     65          1           0       -7.818398    1.840756  -11.132703
     66          1           0       -9.507398    1.480725  -10.831349
     67          1           0       -9.377129    3.525569   -9.821293
     68          1           0       -9.152463    2.481611   -8.436824
     69          1           0       -7.079491    4.148653   -9.949122
     70          1           0       -7.533568    4.302940   -8.262765
     71          1           0       -5.941753    2.112708   -9.535485
     72          1           0       -6.309861    2.074907   -5.576018
     73          1           0       -7.433937    3.052721   -6.437992
     74          1           0       -4.838118    0.765312   -6.630321
     75          1           0       -4.619812    0.888291   -8.359352
 ---------------------------------------------------------------------

 SCF Done:  E(RB3LYP) =  -1917.54513367     A.U. after    2 cycles

 Alpha  occ. eigenvalues --  -19.24941 -19.24436 -19.23853 -19.22917 -19.22506
 Alpha  occ. eigenvalues --  -19.21356 -19.21160 -14.51570 -14.48707 -14.48365
 Alpha  occ. eigenvalues --  -14.48289 -14.47957 -14.47644 -14.47607 -14.46633
 Alpha  occ. eigenvalues --  -14.46125 -10.44638 -10.42547 -10.41514 -10.41024
 Alpha  occ. eigenvalues --  -10.40214 -10.40074 -10.39219 -10.36116 -10.36113
 Alpha  occ. eigenvalues --  -10.34682 -10.33764 -10.33732 -10.32737 -10.30856
 Alpha  occ. eigenvalues --  -10.29426 -10.29421 -10.29308 -10.29230 -10.28372
 Alpha  occ. eigenvalues --  -10.28303 -10.28237 -10.28183 -10.28112  -1.16683
 Alpha  occ. eigenvalues --   -1.16080  -1.15612  -1.14914  -1.14509  -1.14099
 Alpha  occ. eigenvalues --   -1.13252  -1.07877  -1.05974  -1.05427  -1.03929
 Alpha  occ. eigenvalues --   -1.03485  -1.03120  -1.02727  -1.01237  -1.01085
 Alpha  occ. eigenvalues --   -0.94909  -0.91057  -0.90159  -0.89695  -0.88207
 Alpha  occ. eigenvalues --   -0.85364  -0.83920  -0.83581  -0.80556  -0.79056
 Alpha  occ. eigenvalues --   -0.78535  -0.76624  -0.75059  -0.72820  -0.71356
 Alpha  occ. eigenvalues --   -0.71028  -0.70470  -0.70325  -0.69843  -0.69554
 Alpha  occ. eigenvalues --   -0.69067  -0.68795  -0.67210  -0.66815  -0.66344
 Alpha  occ. eigenvalues --   -0.66272  -0.65328  -0.63873  -0.63561  -0.62652
 Alpha  occ. eigenvalues --   -0.62011  -0.61297  -0.61248  -0.60569  -0.59866
 Alpha  occ. eigenvalues --   -0.58993  -0.58661  -0.58397  -0.58148  -0.57661
 Alpha  occ. eigenvalues --   -0.56841  -0.56515  -0.56403  -0.55314  -0.55021
 Alpha  occ. eigenvalues --   -0.54947  -0.54517  -0.54149  -0.53946  -0.53097
 Alpha  occ. eigenvalues --   -0.52903  -0.52683  -0.52338  -0.52162  -0.51652
 Alpha  occ. eigenvalues --   -0.51388  -0.51066  -0.50772  -0.50574  -0.49833
 Alpha  occ. eigenvalues --   -0.49643  -0.49444  -0.49003  -0.48510  -0.47880
 Alpha  occ. eigenvalues --   -0.47756  -0.46786  -0.46586  -0.46107  -0.44782
 Alpha  occ. eigenvalues --   -0.44547  -0.44389  -0.43308  -0.43009  -0.41005
 Alpha  occ. eigenvalues --   -0.40055  -0.39720  -0.39238  -0.39017  -0.38760
 Alpha  occ. eigenvalues --   -0.37505  -0.37366  -0.37292  -0.37015  -0.36319
 Alpha  occ. eigenvalues --   -0.36270  -0.35754  -0.35231  -0.34329  -0.34279
 Alpha  occ. eigenvalues --   -0.33869
 Alpha virt. eigenvalues --   -0.11692  -0.10851  -0.10767  -0.09958  -0.09801
 Alpha virt. eigenvalues --   -0.09553  -0.09362  -0.07486  -0.07063  -0.04394
 Alpha virt. eigenvalues --   -0.03332  -0.01971  -0.01729  -0.00888  -0.00336

 Mulliken charges:
               1
     1  N   -0.813925
     2  C   -0.109816
     3  C    0.630458
     4  O   -0.514548
     5  C   -0.415274
     6  C    0.637887
     7  N   -0.741654
     8  O   -0.534143
     9  H    0.430490
    10  H    0.217062
    11  H    0.218819
    12  H    0.212163
    13  H    0.365994
    14  H    0.357705
    15  H    0.418556
    16  H    0.427486
    17  N   -0.651954
    18  C   -0.080964
    19  C    0.625701
    20  O   -0.555563
    21  C   -0.356355
    22  C    0.173468
    23  C   -0.178849
    24  C   -0.197509
    25  C   -0.138108
    26  C   -0.136661
    27  C   -0.159196
    28  H    0.390069
    29  H    0.220057
    30  H    0.144221
    31  H    0.194915
    32  H    0.152207
    33  H    0.143504
    34  H    0.158258
    35  H    0.152066
    36  H    0.150088
    37  N   -0.631975
    38  C   -0.060511
    39  C    0.642027
    40  O   -0.583280
    41  C   -0.395733
    42  C    0.626539
    43  N   -0.725824
    44  O   -0.560744
    45  H    0.370126
    46  H    0.221288
    47  H    0.217640
    48  H    0.197590
    49  H    0.366327
    50  H    0.367942
    51  N   -0.605629
    52  C   -0.058892
    53  C    0.602489
    54  O   -0.553228
    55  C   -0.301247
    56  C   -0.302008
    57  C   -0.178690
    58  N   -0.592076
    59  C    0.718816
    60  N   -0.767711
    61  N   -0.780986
    62  O   -0.604559
    63  H    0.361166
    64  H    0.169766
    65  H    0.177853
    66  H    0.166087
    67  H    0.166714
    68  H    0.165442
    69  H    0.193993
    70  H    0.174127
    71  H    0.403554
    72  H    0.385985
    73  H    0.386679
    74  H    0.398299
    75  H    0.385989
 Sum of Mulliken charges =   1.00000

 Dipole moment (field-independent basis, Debye):
    X=            -39.0614    Y=             -4.1468    Z=            -36.8151  Tot=             53.8362
 Quadrupole moment (field-independent basis, Debye-Ang):
   XX=            135.6180   YY=           -137.8346   ZZ=             66.4817
   XY=            -11.5508   XZ=            290.4321   YZ=             42.6539

 Normal termination of Gaussian 16 at Fri Jun  3 06:01:15 2022.
