 Gaussian 16, Revision C.01,
 Gaussian 16:  ES64L-G16RevC.01  3-Jul-2019

 ----------------------------------------------------------------------
 # B3LYP/6-31G* empiricaldispersion=gd3 guess=read geom=check nosymm in
 tegral(ultrafinegrid)
 ----------------------------------------------------------------------

 ------------------------------------------------------
 Candidate Structure: Conf:883 Charge calc in gas phase
 ------------------------------------------------------
 Structure from the checkpoint file:  "conf-883.chk"
 Charge =  1 Multiplicity = 1

                          Input orientation:
 ---------------------------------------------------------------------
 Center     Atomic      Atomic             Coordinates (Angstroms)
 Number     Number       Type             X           Y           Z
 ---------------------------------------------------------------------
      1          7           0       -9.326542   -2.546468   -9.546792
      2          6           0       -9.784710   -3.060188   -8.213135
      3          6           0       -9.295987   -2.230867   -7.013917
      4          8           0      -10.105357   -1.846140   -6.179137
      5          6           0       -9.334772   -4.517141   -8.062638
      6          6           0       -9.955486   -5.418904   -9.125644
      7          7           0      -10.000382   -6.728952   -8.807835
      8          8           0      -10.361485   -4.972316  -10.203551
      9          1           0       -9.759077   -3.178603  -10.246553
     10          1           0      -10.873229   -2.988986   -8.200354
     11          1           0       -8.243793   -4.581480   -8.148459
     12          1           0       -9.586498   -4.863569   -7.056747
     13          1           0      -10.349101   -7.387824   -9.491552
     14          1           0       -9.657725   -7.072358   -7.920990
     15          1           0       -9.579214   -1.553614   -9.670143
     16          1           0       -8.261974   -2.600448   -9.621029
     17          7           0       -7.949157   -2.034446   -6.898736
     18          6           0       -7.373264   -1.730183   -5.593106
     19          6           0       -6.552949   -0.430416   -5.555853
     20          8           0       -5.484487   -0.381961   -4.930139
     21          6           0       -6.522034   -2.916646   -5.086104
     22          6           0       -7.244950   -4.246551   -5.153779
     23          6           0       -8.451035   -4.455890   -4.467363
     24          6           0       -6.710611   -5.302284   -5.902672
     25          6           0       -9.099522   -5.690171   -4.523692
     26          6           0       -7.351112   -6.543794   -5.956163
     27          6           0       -8.548745   -6.741953   -5.265330
     28          1           0       -7.328479   -2.409768   -7.621715
     29          1           0       -8.228380   -1.572622   -4.925608
     30          1           0       -5.605955   -2.970359   -5.685656
     31          1           0       -6.203621   -2.692936   -4.063034
     32          1           0       -8.890240   -3.650863   -3.884061
     33          1           0       -5.780241   -5.156276   -6.446430
     34          1           0      -10.027653   -5.835535   -3.978343
     35          1           0       -6.905502   -7.354690   -6.526121
     36          1           0       -9.038725   -7.712435   -5.280817
     37          7           0       -7.007826    0.682726   -6.189399
     38          6           0       -8.189555    0.907821   -7.014284
     39          6           0       -8.067820    0.375760   -8.457256
     40          8           0       -9.099582    0.163517   -9.104887
     41          6           0       -8.500938    2.421274   -7.072390
     42          6           0       -7.368550    3.229419   -7.709017
     43          7           0       -7.730903    4.171681   -8.600255
     44          8           0       -6.181141    3.025150   -7.415685
     45          1           0       -6.383987    1.482575   -6.131202
     46          1           0       -9.055778    0.400138   -6.583094
     47          1           0       -8.649104    2.795621   -6.052436
     48          1           0       -9.440800    2.549432   -7.616029
     49          1           0       -7.018227    4.778594   -8.985291
     50          1           0       -8.695747    4.362115   -8.829606
     51          7           0       -6.815983    0.227904   -8.932123
     52          6           0       -6.475509   -0.442207  -10.194323
     53          6           0       -5.830870   -1.813148   -9.783765
     54          8           0       -4.588600   -1.949267   -9.774273
     55          6           0       -5.775965    0.504790  -11.196184
     56          6           0       -4.324288    1.007622  -11.025480
     57          6           0       -3.903640    1.523656   -9.640033
     58          7           0       -3.687360    0.344077   -8.800671
     59          6           0       -3.685249    0.234821   -7.477939
     60          7           0       -3.772777    1.301851   -6.661312
     61          7           0       -3.553047   -1.000324   -6.947704
     62          8           0       -6.664588   -2.687517   -9.377370
     63          1           0       -6.064351    0.428920   -8.289385
     64          1           0       -7.440228   -0.672385  -10.651444
     65          1           0       -5.824366    0.013709  -12.175501
     66          1           0       -6.438310    1.377921  -11.261722
     67          1           0       -3.620557    0.220938  -11.319953
     68          1           0       -4.184718    1.821880  -11.744852
     69          1           0       -2.972614    2.097190   -9.717364
     70          1           0       -4.670474    2.178689   -9.206866
     71          1           0       -3.788393   -0.556159   -9.306643
     72          1           0       -4.021233    1.110330   -5.695051
     73          1           0       -4.121789    2.176371   -7.035412
     74          1           0       -3.889247   -1.143195   -6.000398
     75          1           0       -3.625985   -1.785881   -7.587448
 ---------------------------------------------------------------------

 SCF Done:  E(RB3LYP) =  -1917.54202719     A.U. after    2 cycles

 Alpha  occ. eigenvalues --  -19.25025 -19.24039 -19.23857 -19.23027 -19.22476
 Alpha  occ. eigenvalues --  -19.21426 -19.21175 -14.51505 -14.48837 -14.48332
 Alpha  occ. eigenvalues --  -14.48140 -14.47939 -14.47667 -14.47606 -14.46783
 Alpha  occ. eigenvalues --  -14.46085 -10.44581 -10.42626 -10.41338 -10.40984
 Alpha  occ. eigenvalues --  -10.40299 -10.40047 -10.39366 -10.36116 -10.36113
 Alpha  occ. eigenvalues --  -10.34713 -10.33760 -10.33744 -10.32768 -10.30826
 Alpha  occ. eigenvalues --  -10.29532 -10.29456 -10.29408 -10.29401 -10.28460
 Alpha  occ. eigenvalues --  -10.28398 -10.28344 -10.28260 -10.28228  -1.16681
 Alpha  occ. eigenvalues --   -1.16004  -1.15542  -1.14994  -1.14530  -1.14076
 Alpha  occ. eigenvalues --   -1.13305  -1.07849  -1.05839  -1.05444  -1.03908
 Alpha  occ. eigenvalues --   -1.03588  -1.03167  -1.02628  -1.01366  -1.01054
 Alpha  occ. eigenvalues --   -0.95007  -0.91085  -0.90183  -0.89815  -0.88249
 Alpha  occ. eigenvalues --   -0.85487  -0.83943  -0.83672  -0.80636  -0.79066
 Alpha  occ. eigenvalues --   -0.78389  -0.76609  -0.74813  -0.72516  -0.71429
 Alpha  occ. eigenvalues --   -0.71150  -0.70606  -0.70450  -0.69775  -0.69516
 Alpha  occ. eigenvalues --   -0.69114  -0.68738  -0.67279  -0.66857  -0.66695
 Alpha  occ. eigenvalues --   -0.66273  -0.65446  -0.63867  -0.63489  -0.62709
 Alpha  occ. eigenvalues --   -0.61861  -0.61365  -0.61027  -0.60382  -0.60003
 Alpha  occ. eigenvalues --   -0.58927  -0.58872  -0.58430  -0.58043  -0.57656
 Alpha  occ. eigenvalues --   -0.56576  -0.56493  -0.56373  -0.55411  -0.55014
 Alpha  occ. eigenvalues --   -0.54859  -0.54462  -0.54280  -0.54025  -0.53212
 Alpha  occ. eigenvalues --   -0.53015  -0.52502  -0.52302  -0.52070  -0.51483
 Alpha  occ. eigenvalues --   -0.51298  -0.51064  -0.50684  -0.50639  -0.49837
 Alpha  occ. eigenvalues --   -0.49734  -0.49392  -0.49088  -0.48552  -0.48380
 Alpha  occ. eigenvalues --   -0.47849  -0.46746  -0.46580  -0.45512  -0.44919
 Alpha  occ. eigenvalues --   -0.44604  -0.44475  -0.43397  -0.43113  -0.40937
 Alpha  occ. eigenvalues --   -0.40094  -0.39816  -0.39105  -0.38951  -0.38782
 Alpha  occ. eigenvalues --   -0.37716  -0.37405  -0.37280  -0.36912  -0.36290
 Alpha  occ. eigenvalues --   -0.36229  -0.35746  -0.35327  -0.34404  -0.34364
 Alpha  occ. eigenvalues --   -0.33937
 Alpha virt. eigenvalues --   -0.11460  -0.10950  -0.10831  -0.10124  -0.09842
 Alpha virt. eigenvalues --   -0.09627  -0.09362  -0.07483  -0.06828  -0.04448
 Alpha virt. eigenvalues --   -0.03307  -0.01865  -0.01570  -0.00899  -0.00275

 Mulliken charges:
               1
     1  N   -0.814680
     2  C   -0.109274
     3  C    0.628731
     4  O   -0.511024
     5  C   -0.416620
     6  C    0.637494
     7  N   -0.742306
     8  O   -0.534132
     9  H    0.418184
    10  H    0.217300
    11  H    0.220015
    12  H    0.211281
    13  H    0.365724
    14  H    0.357795
    15  H    0.427530
    16  H    0.431717
    17  N   -0.652847
    18  C   -0.085133
    19  C    0.633827
    20  O   -0.556875
    21  C   -0.359599
    22  C    0.174375
    23  C   -0.180030
    24  C   -0.198509
    25  C   -0.137818
    26  C   -0.135881
    27  C   -0.160020
    28  H    0.386378
    29  H    0.222558
    30  H    0.140345
    31  H    0.197789
    32  H    0.151744
    33  H    0.145666
    34  H    0.158640
    35  H    0.153148
    36  H    0.150599
    37  N   -0.639569
    38  C   -0.056694
    39  C    0.643956
    40  O   -0.583551
    41  C   -0.395126
    42  C    0.619803
    43  N   -0.724896
    44  O   -0.557795
    45  H    0.367140
    46  H    0.221514
    47  H    0.216676
    48  H    0.195888
    49  H    0.365873
    50  H    0.368849
    51  N   -0.610643
    52  C   -0.075811
    53  C    0.604756
    54  O   -0.554329
    55  C   -0.267437
    56  C   -0.316710
    57  C   -0.159697
    58  N   -0.629695
    59  C    0.718120
    60  N   -0.753720
    61  N   -0.769716
    62  O   -0.599204
    63  H    0.366279
    64  H    0.164739
    65  H    0.172656
    66  H    0.152444
    67  H    0.185264
    68  H    0.170406
    69  H    0.188073
    70  H    0.175500
    71  H    0.418074
    72  H    0.378147
    73  H    0.392551
    74  H    0.392144
    75  H    0.379648
 Sum of Mulliken charges =   1.00000

 Dipole moment (field-independent basis, Debye):
    X=            -35.3331    Y=             -2.1737    Z=            -38.3243  Tot=             52.1719
 Quadrupole moment (field-independent basis, Debye-Ang):
   XX=             52.8741   YY=           -120.9224   ZZ=             94.0025
   XY=             39.5767   XZ=            279.3224   YZ=             -1.4131

 Normal termination of Gaussian 16 at Fri Jun  3 06:00:52 2022.
