 Gaussian 16, Revision C.01,
 Gaussian 16:  ES64L-G16RevC.01  3-Jul-2019

 ----------------------------------------------------------------------
 # B3LYP/6-31G* empiricaldispersion=gd3 guess=read geom=check nosymm in
 tegral(ultrafinegrid)
 ----------------------------------------------------------------------

 ------------------------------------------------------
 Candidate Structure: Conf:365 Charge calc in gas phase
 ------------------------------------------------------
 Structure from the checkpoint file:  "conf-365.chk"
 Charge =  1 Multiplicity = 1

                          Input orientation:
 ---------------------------------------------------------------------
 Center     Atomic      Atomic             Coordinates (Angstroms)
 Number     Number       Type             X           Y           Z
 ---------------------------------------------------------------------
      1          7           0       -8.724471   -3.080982   -5.704100
      2          6           0       -8.587820   -1.739392   -5.044334
      3          6           0       -8.383588   -0.573184   -6.024903
      4          8           0       -9.092070    0.422182   -5.935024
      5          6           0       -7.424004   -1.791942   -4.048571
      6          6           0       -7.667342   -2.810107   -2.938709
      7          7           0       -6.973459   -2.594108   -1.802470
      8          8           0       -8.428754   -3.770964   -3.091436
      9          1           0       -7.830918   -3.328369   -6.231614
     10          1           0       -9.528644   -1.538703   -4.529897
     11          1           0       -6.499217   -2.063368   -4.571251
     12          1           0       -7.264720   -0.791145   -3.638349
     13          1           0       -7.048055   -3.263003   -1.047317
     14          1           0       -6.355187   -1.801026   -1.699986
     15          1           0       -8.874237   -3.754098   -4.928679
     16          1           0       -9.482622   -3.076567   -6.404602
     17          7           0       -7.345743   -0.681840   -6.903208
     18          6           0       -6.780393    0.513396   -7.516450
     19          6           0       -6.742812    0.436206   -9.050443
     20          8           0       -5.708779    0.721113   -9.675219
     21          6           0       -5.373526    0.805888   -6.949021
     22          6           0       -5.322750    0.786039   -5.434204
     23          6           0       -6.132671    1.634950   -4.664155
     24          6           0       -4.451514   -0.087250   -4.771252
     25          6           0       -6.067380    1.613287   -3.270391
     26          6           0       -4.375097   -0.107523   -3.375539
     27          6           0       -5.183986    0.744118   -2.619658
     28          1           0       -6.791331   -1.543760   -6.927409
     29          1           0       -7.465782    1.328632   -7.259213
     30          1           0       -4.673957    0.061201   -7.344213
     31          1           0       -5.040779    1.772186   -7.342897
     32          1           0       -6.824451    2.315827   -5.152630
     33          1           0       -3.818839   -0.755047   -5.351222
     34          1           0       -6.697368    2.283277   -2.692313
     35          1           0       -3.674690   -0.778200   -2.884915
     36          1           0       -5.112528    0.751618   -1.534831
     37          7           0       -7.860687    0.082016   -9.734047
     38          6           0       -9.118081   -0.494182   -9.268496
     39          6           0       -9.016455   -1.980395   -8.854355
     40          8           0       -9.889363   -2.459964   -8.121925
     41          6           0      -10.188690   -0.354530  -10.373481
     42          6           0       -9.809720   -1.079305  -11.667711
     43          7           0      -10.812137   -1.700569  -12.318231
     44          8           0       -8.646292   -1.086859  -12.097554
     45          1           0       -7.742090    0.035669  -10.743486
     46          1           0       -9.474458    0.036945   -8.382576
     47          1           0      -10.319517    0.708401  -10.610339
     48          1           0      -11.136084   -0.725533   -9.972737
     49          1           0      -10.621490   -2.121486  -13.218699
     50          1           0      -11.766744   -1.687184  -11.989026
     51          7           0       -7.980182   -2.666775   -9.370861
     52          6           0       -7.592528   -4.033656   -9.019637
     53          6           0       -6.272799   -3.922965   -8.169346
     54          8           0       -5.187203   -4.323337   -8.634665
     55          6           0       -7.589097   -4.999891  -10.241305
     56          6           0       -7.472984   -4.395568  -11.661626
     57          6           0       -6.039220   -4.162000  -12.169604
     58          7           0       -5.180438   -3.506159  -11.186924
     59          6           0       -5.040521   -2.196839  -10.983444
     60          7           0       -5.558319   -1.269303  -11.813495
     61          7           0       -4.316095   -1.788053   -9.925004
     62          8           0       -6.420222   -3.352066   -7.038047
     63          1           0       -7.359135   -2.144493   -9.971919
     64          1           0       -8.366543   -4.379602   -8.330826
     65          1           0       -6.801447   -5.743993  -10.076971
     66          1           0       -8.538093   -5.544179  -10.208954
     67          1           0       -7.945363   -5.088850  -12.367633
     68          1           0       -8.047600   -3.465941  -11.725188
     69          1           0       -5.561171   -5.121658  -12.388700
     70          1           0       -6.035296   -3.593199  -13.105028
     71          1           0       -4.985778   -4.072579  -10.344742
     72          1           0       -5.522442   -0.303170  -11.494133
     73          1           0       -6.331960   -1.506606  -12.420639
     74          1           0       -4.382121   -0.815071   -9.641424
     75          1           0       -4.061922   -2.482199   -9.228374
 ---------------------------------------------------------------------

 SCF Done:  E(RB3LYP) =  -1917.54511833     A.U. after    3 cycles

 Alpha  occ. eigenvalues --  -19.24943 -19.24434 -19.23852 -19.22920 -19.22500
 Alpha  occ. eigenvalues --  -19.21356 -19.21162 -14.51576 -14.48708 -14.48372
 Alpha  occ. eigenvalues --  -14.48288 -14.47956 -14.47645 -14.47611 -14.46637
 Alpha  occ. eigenvalues --  -14.46122 -10.44642 -10.42548 -10.41512 -10.41023
 Alpha  occ. eigenvalues --  -10.40217 -10.40068 -10.39221 -10.36116 -10.36113
 Alpha  occ. eigenvalues --  -10.34680 -10.33765 -10.33733 -10.32738 -10.30851
 Alpha  occ. eigenvalues --  -10.29424 -10.29423 -10.29305 -10.29231 -10.28369
 Alpha  occ. eigenvalues --  -10.28299 -10.28233 -10.28181 -10.28107  -1.16684
 Alpha  occ. eigenvalues --   -1.16081  -1.15611  -1.14915  -1.14510  -1.14093
 Alpha  occ. eigenvalues --   -1.13255  -1.07881  -1.05976  -1.05429  -1.03932
 Alpha  occ. eigenvalues --   -1.03487  -1.03122  -1.02729  -1.01242  -1.01081
 Alpha  occ. eigenvalues --   -0.94906  -0.91056  -0.90157  -0.89696  -0.88203
 Alpha  occ. eigenvalues --   -0.85367  -0.83918  -0.83577  -0.80557  -0.79055
 Alpha  occ. eigenvalues --   -0.78537  -0.76624  -0.75062  -0.72821  -0.71356
 Alpha  occ. eigenvalues --   -0.71029  -0.70471  -0.70327  -0.69843  -0.69554
 Alpha  occ. eigenvalues --   -0.69065  -0.68793  -0.67209  -0.66816  -0.66346
 Alpha  occ. eigenvalues --   -0.66275  -0.65329  -0.63869  -0.63563  -0.62656
 Alpha  occ. eigenvalues --   -0.62013  -0.61302  -0.61248  -0.60573  -0.59866
 Alpha  occ. eigenvalues --   -0.58992  -0.58662  -0.58397  -0.58146  -0.57661
 Alpha  occ. eigenvalues --   -0.56841  -0.56516  -0.56401  -0.55315  -0.55022
 Alpha  occ. eigenvalues --   -0.54945  -0.54515  -0.54141  -0.53949  -0.53098
 Alpha  occ. eigenvalues --   -0.52902  -0.52680  -0.52337  -0.52161  -0.51651
 Alpha  occ. eigenvalues --   -0.51385  -0.51064  -0.50773  -0.50572  -0.49832
 Alpha  occ. eigenvalues --   -0.49641  -0.49444  -0.49002  -0.48509  -0.47882
 Alpha  occ. eigenvalues --   -0.47759  -0.46786  -0.46589  -0.46108  -0.44784
 Alpha  occ. eigenvalues --   -0.44542  -0.44390  -0.43304  -0.43005  -0.41005
 Alpha  occ. eigenvalues --   -0.40056  -0.39723  -0.39239  -0.39015  -0.38762
 Alpha  occ. eigenvalues --   -0.37503  -0.37364  -0.37292  -0.37016  -0.36318
 Alpha  occ. eigenvalues --   -0.36272  -0.35753  -0.35232  -0.34330  -0.34278
 Alpha  occ. eigenvalues --   -0.33865
 Alpha virt. eigenvalues --   -0.11689  -0.10851  -0.10772  -0.09958  -0.09795
 Alpha virt. eigenvalues --   -0.09554  -0.09367  -0.07479  -0.07066  -0.04398
 Alpha virt. eigenvalues --   -0.03335  -0.01967  -0.01725  -0.00887  -0.00332

 Mulliken charges:
               1
     1  N   -0.813654
     2  C   -0.109916
     3  C    0.630576
     4  O   -0.514620
     5  C   -0.415482
     6  C    0.637989
     7  N   -0.741713
     8  O   -0.534143
     9  H    0.430462
    10  H    0.217081
    11  H    0.218872
    12  H    0.212221
    13  H    0.365981
    14  H    0.357689
    15  H    0.418516
    16  H    0.427466
    17  N   -0.651579
    18  C   -0.081260
    19  C    0.625633
    20  O   -0.555534
    21  C   -0.356062
    22  C    0.173208
    23  C   -0.178975
    24  C   -0.197208
    25  C   -0.138122
    26  C   -0.136890
    27  C   -0.159136
    28  H    0.389850
    29  H    0.220029
    30  H    0.144270
    31  H    0.194919
    32  H    0.152319
    33  H    0.143366
    34  H    0.158255
    35  H    0.152035
    36  H    0.150133
    37  N   -0.632079
    38  C   -0.060643
    39  C    0.642144
    40  O   -0.583266
    41  C   -0.395650
    42  C    0.626600
    43  N   -0.725818
    44  O   -0.560780
    45  H    0.370211
    46  H    0.221297
    47  H    0.217627
    48  H    0.197572
    49  H    0.366327
    50  H    0.367946
    51  N   -0.605621
    52  C   -0.058986
    53  C    0.602477
    54  O   -0.553173
    55  C   -0.301099
    56  C   -0.302023
    57  C   -0.178644
    58  N   -0.592126
    59  C    0.718748
    60  N   -0.767580
    61  N   -0.781022
    62  O   -0.604558
    63  H    0.361116
    64  H    0.169761
    65  H    0.177843
    66  H    0.166062
    67  H    0.166727
    68  H    0.165357
    69  H    0.193993
    70  H    0.174173
    71  H    0.403659
    72  H    0.385835
    73  H    0.386732
    74  H    0.398399
    75  H    0.385886
 Sum of Mulliken charges =   1.00000

 Dipole moment (field-independent basis, Debye):
    X=            -38.0703    Y=             -8.4049    Z=            -41.2361  Tot=             56.7486
 Quadrupole moment (field-independent basis, Debye-Ang):
   XX=            100.9426   YY=           -200.3688   ZZ=            230.6993
   XY=             69.9334   XZ=            357.5402   YZ=             87.5393

 Normal termination of Gaussian 16 at Fri Jun  3 06:01:09 2022.
