 Gaussian 16, Revision C.01,
 Gaussian 16:  ES64L-G16RevC.01  3-Jul-2019

 ----------------------------------------------------------------------
 # B3LYP/6-31G* empiricaldispersion=gd3 guess=read geom=check nosymm in
 tegral(ultrafinegrid)
 ----------------------------------------------------------------------

 ------------------------------------------------------
 Candidate Structure: Conf:876 Charge calc in gas phase
 ------------------------------------------------------
 Structure from the checkpoint file:  "conf-876.chk"
 Charge =  1 Multiplicity = 1

                          Input orientation:
 ---------------------------------------------------------------------
 Center     Atomic      Atomic             Coordinates (Angstroms)
 Number     Number       Type             X           Y           Z
 ---------------------------------------------------------------------
      1          7           0       -9.424234   -3.476886   -7.915315
      2          6           0       -9.307677   -3.287419   -6.431015
      3          6           0       -8.747561   -1.918419   -6.010527
      4          8           0       -9.351302   -1.250934   -5.179910
      5          6           0       -8.438028   -4.410053   -5.855452
      6          6           0       -9.057150   -5.785954   -6.083516
      7          7           0       -8.630959   -6.750468   -5.242492
      8          8           0       -9.870014   -5.993209   -6.990427
      9          1           0       -9.843119   -4.417981   -8.038632
     10          1           0      -10.318276   -3.333909   -6.022815
     11          1           0       -7.448122   -4.393624   -6.326061
     12          1           0       -8.276624   -4.222806   -4.790479
     13          1           0       -8.959950   -7.697679   -5.375641
     14          1           0       -7.960202   -6.558877   -4.510925
     15          1           0       -9.974015   -2.717023   -8.345819
     16          1           0       -8.458306   -3.449256   -8.371713
     17          7           0       -7.541374   -1.550303   -6.535335
     18          6           0       -6.719542   -0.567716   -5.836784
     19          6           0       -6.333855    0.650713   -6.691479
     20          8           0       -5.190519    1.124088   -6.626885
     21          6           0       -5.453398   -1.236611   -5.254636
     22          6           0       -5.750275   -2.485652   -4.449936
     23          6           0       -6.586104   -2.444916   -3.323308
     24          6           0       -5.181703   -3.711891   -4.815970
     25          6           0       -6.839093   -3.598488   -2.580028
     26          6           0       -5.424640   -4.869377   -4.070574
     27          6           0       -6.254555   -4.815955   -2.948422
     28          1           0       -7.079165   -2.173369   -7.203947
     29          1           0       -7.347108   -0.185849   -5.023195
     30          1           0       -4.780500   -1.489302   -6.082231
     31          1           0       -4.925343   -0.493713   -4.648569
     32          1           0       -7.044827   -1.506934   -3.021661
     33          1           0       -4.536870   -3.763807   -5.690096
     34          1           0       -7.481639   -3.544965   -1.705822
     35          1           0       -4.954457   -5.804918   -4.361533
     36          1           0       -6.426729   -5.706330   -2.348628
     37          7           0       -7.253095    1.233002   -7.505969
     38          6           0       -8.636561    0.881259   -7.805481
     39          6           0       -8.794190   -0.292795   -8.793908
     40          8           0       -9.864035   -0.912425   -8.819604
     41          6           0       -9.372357    2.112961   -8.381503
     42          6           0       -8.757523    2.606316   -9.692768
     43          7           0       -9.620235    2.941136  -10.670985
     44          8           0       -7.529596    2.695293   -9.841463
     45          1           0       -6.895404    2.011709   -8.051727
     46          1           0       -9.155135    0.573074   -6.894396
     47          1           0       -9.319278    2.933342   -7.655767
     48          1           0      -10.424972    1.845643   -8.507767
     49          1           0       -9.256692    3.344820  -11.525006
     50          1           0      -10.622101    2.892601  -10.553922
     51          7           0       -7.747728   -0.528305   -9.608688
     52          6           0       -7.612957   -1.707059  -10.474955
     53          6           0       -6.511822   -2.601327   -9.803179
     54          8           0       -5.335924   -2.579285  -10.225759
     55          6           0       -7.537600   -1.334373  -11.973287
     56          6           0       -6.306955   -0.664138  -12.625437
     57          6           0       -5.669114    0.527438  -11.893277
     58          7           0       -4.888399   -0.028623  -10.786782
     59          6           0       -4.468805    0.552855   -9.669970
     60          7           0       -4.619355    1.870510   -9.436892
     61          7           0       -3.835687   -0.216232   -8.757810
     62          8           0       -6.904098   -3.232784   -8.767687
     63          1           0       -6.932570    0.051043   -9.473437
     64          1           0       -8.560597   -2.238364  -10.364322
     65          1           0       -7.725580   -2.257768  -12.534160
     66          1           0       -8.411623   -0.692410  -12.144409
     67          1           0       -5.524312   -1.411174  -12.799210
     68          1           0       -6.621774   -0.320792  -13.616894
     69          1           0       -5.006939    1.077476  -12.571998
     70          1           0       -6.431869    1.225043  -11.524127
     71          1           0       -4.869408   -1.065887  -10.765324
     72          1           0       -4.506486    2.173233   -8.473785
     73          1           0       -5.301841    2.387786   -9.978399
     74          1           0       -3.828300    0.107029   -7.795244
     75          1           0       -3.858857   -1.220564   -8.907279
 ---------------------------------------------------------------------

 SCF Done:  E(RB3LYP) =  -1917.54201999     A.U. after    1 cycles

 Alpha  occ. eigenvalues --  -19.25035 -19.24027 -19.23847 -19.23020 -19.22470
 Alpha  occ. eigenvalues --  -19.21411 -19.21161 -14.51492 -14.48836 -14.48330
 Alpha  occ. eigenvalues --  -14.48127 -14.47931 -14.47660 -14.47603 -14.46771
 Alpha  occ. eigenvalues --  -14.46080 -10.44577 -10.42637 -10.41329 -10.40975
 Alpha  occ. eigenvalues --  -10.40291 -10.40042 -10.39349 -10.36105 -10.36105
 Alpha  occ. eigenvalues --  -10.34708 -10.33745 -10.33734 -10.32770 -10.30821
 Alpha  occ. eigenvalues --  -10.29528 -10.29442 -10.29397 -10.29393 -10.28455
 Alpha  occ. eigenvalues --  -10.28395 -10.28342 -10.28254 -10.28225  -1.16684
 Alpha  occ. eigenvalues --   -1.15998  -1.15531  -1.14985  -1.14515  -1.14070
 Alpha  occ. eigenvalues --   -1.13298  -1.07835  -1.05824  -1.05432  -1.03897
 Alpha  occ. eigenvalues --   -1.03592  -1.03161  -1.02622  -1.01360  -1.01048
 Alpha  occ. eigenvalues --   -0.95003  -0.91077  -0.90175  -0.89810  -0.88244
 Alpha  occ. eigenvalues --   -0.85478  -0.83938  -0.83668  -0.80635  -0.79060
 Alpha  occ. eigenvalues --   -0.78382  -0.76602  -0.74808  -0.72511  -0.71422
 Alpha  occ. eigenvalues --   -0.71145  -0.70598  -0.70443  -0.69767  -0.69508
 Alpha  occ. eigenvalues --   -0.69107  -0.68729  -0.67273  -0.66854  -0.66685
 Alpha  occ. eigenvalues --   -0.66263  -0.65443  -0.63862  -0.63477  -0.62696
 Alpha  occ. eigenvalues --   -0.61855  -0.61367  -0.61026  -0.60381  -0.59997
 Alpha  occ. eigenvalues --   -0.58920  -0.58861  -0.58420  -0.58036  -0.57654
 Alpha  occ. eigenvalues --   -0.56567  -0.56481  -0.56369  -0.55403  -0.55010
 Alpha  occ. eigenvalues --   -0.54853  -0.54453  -0.54277  -0.54013  -0.53219
 Alpha  occ. eigenvalues --   -0.53004  -0.52499  -0.52295  -0.52076  -0.51480
 Alpha  occ. eigenvalues --   -0.51289  -0.51055  -0.50665  -0.50631  -0.49825
 Alpha  occ. eigenvalues --   -0.49729  -0.49384  -0.49083  -0.48540  -0.48372
 Alpha  occ. eigenvalues --   -0.47839  -0.46739  -0.46572  -0.45499  -0.44908
 Alpha  occ. eigenvalues --   -0.44599  -0.44464  -0.43394  -0.43110  -0.40932
 Alpha  occ. eigenvalues --   -0.40101  -0.39812  -0.39103  -0.38946  -0.38782
 Alpha  occ. eigenvalues --   -0.37710  -0.37402  -0.37273  -0.36899  -0.36281
 Alpha  occ. eigenvalues --   -0.36218  -0.35738  -0.35314  -0.34398  -0.34349
 Alpha  occ. eigenvalues --   -0.33933
 Alpha virt. eigenvalues --   -0.11460  -0.10952  -0.10824  -0.10117  -0.09838
 Alpha virt. eigenvalues --   -0.09622  -0.09353  -0.07480  -0.06810  -0.04432
 Alpha virt. eigenvalues --   -0.03301  -0.01859  -0.01564  -0.00893  -0.00270

 Mulliken charges:
               1
     1  N   -0.814952
     2  C   -0.109229
     3  C    0.628637
     4  O   -0.511022
     5  C   -0.416579
     6  C    0.637454
     7  N   -0.742273
     8  O   -0.534137
     9  H    0.418172
    10  H    0.217268
    11  H    0.220093
    12  H    0.211194
    13  H    0.365714
    14  H    0.357786
    15  H    0.427603
    16  H    0.431695
    17  N   -0.653022
    18  C   -0.085070
    19  C    0.633972
    20  O   -0.557026
    21  C   -0.359915
    22  C    0.174530
    23  C   -0.180078
    24  C   -0.198668
    25  C   -0.137863
    26  C   -0.135718
    27  C   -0.160040
    28  H    0.386546
    29  H    0.222540
    30  H    0.140382
    31  H    0.197823
    32  H    0.151660
    33  H    0.145886
    34  H    0.158611
    35  H    0.153173
    36  H    0.150563
    37  N   -0.639384
    38  C   -0.056487
    39  C    0.644167
    40  O   -0.583611
    41  C   -0.395672
    42  C    0.620059
    43  N   -0.724908
    44  O   -0.558022
    45  H    0.366864
    46  H    0.221477
    47  H    0.216726
    48  H    0.196175
    49  H    0.365958
    50  H    0.368869
    51  N   -0.610652
    52  C   -0.075909
    53  C    0.604919
    54  O   -0.554338
    55  C   -0.267424
    56  C   -0.316657
    57  C   -0.159733
    58  N   -0.629829
    59  C    0.717950
    60  N   -0.753609
    61  N   -0.769538
    62  O   -0.599234
    63  H    0.366283
    64  H    0.164640
    65  H    0.172628
    66  H    0.152557
    67  H    0.185238
    68  H    0.170448
    69  H    0.188079
    70  H    0.175771
    71  H    0.418088
    72  H    0.377885
    73  H    0.392707
    74  H    0.392330
    75  H    0.379474
 Sum of Mulliken charges =   1.00000

 Dipole moment (field-independent basis, Debye):
    X=            -37.3143    Y=             -3.2267    Z=            -39.9976  Tot=             54.7958
 Quadrupole moment (field-independent basis, Debye-Ang):
   XX=             78.8720   YY=           -155.7114   ZZ=            161.5066
   XY=             17.8426   XZ=            318.5669   YZ=            -24.2098

 Normal termination of Gaussian 16 at Fri Jun  3 06:00:34 2022.
