 Gaussian 16, Revision C.01,
 Gaussian 16:  ES64L-G16RevC.01  3-Jul-2019

 ----------------------------------------------------------------------
 # B3LYP/6-31G* empiricaldispersion=gd3 guess=read geom=check nosymm in
 tegral(ultrafinegrid)
 ----------------------------------------------------------------------

 ------------------------------------------------------
 Candidate Structure: Conf:746 Charge calc in gas phase
 ------------------------------------------------------
 Structure from the checkpoint file:  "conf-746.chk"
 Charge =  1 Multiplicity = 1

                          Input orientation:
 ---------------------------------------------------------------------
 Center     Atomic      Atomic             Coordinates (Angstroms)
 Number     Number       Type             X           Y           Z
 ---------------------------------------------------------------------
      1          7           0       -6.013832   -2.614205  -10.350835
      2          6           0       -7.472305   -2.950837  -10.502137
      3          6           0       -8.419284   -1.950570   -9.812413
      4          8           0       -9.281395   -1.383400  -10.472840
      5          6           0       -7.708535   -4.373602   -9.990016
      6          6           0       -6.941712   -5.406152  -10.809381
      7          7           0       -7.419243   -6.666047  -10.730873
      8          8           0       -5.944017   -5.103181  -11.471496
      9          1           0       -5.825343   -1.627869  -10.594063
     10          1           0       -7.698654   -2.880923  -11.566949
     11          1           0       -7.383381   -4.453838   -8.946336
     12          1           0       -8.782197   -4.581757   -9.995065
     13          1           0       -6.926221   -7.408408  -11.208995
     14          1           0       -8.234643   -6.890168  -10.176959
     15          1           0       -5.705263   -2.723884   -9.344786
     16          1           0       -5.510118   -3.301153  -10.939717
     17          7           0       -8.266081   -1.788689   -8.468754
     18          6           0       -9.352338   -1.257897   -7.644692
     19          6           0       -8.993830    0.043932   -6.893294
     20          8           0       -9.213210    0.143512   -5.684603
     21          6           0       -9.802210   -2.332114   -6.629115
     22          6           0      -10.005360   -3.696803   -7.252820
     23          6           0      -10.987842   -3.917900   -8.230030
     24          6           0       -9.196551   -4.772155   -6.862498
     25          6           0      -11.166823   -5.183611   -8.790170
     26          6           0       -9.377426   -6.044621   -7.412684
     27          6           0      -10.365698   -6.255127   -8.377257
     28          1           0       -7.601367   -2.393995   -7.991410
     29          1           0      -10.163287   -1.013838   -8.339667
     30          1           0       -9.038960   -2.394414   -5.848626
     31          1           0      -10.718034   -1.980090   -6.143958
     32          1           0      -11.621058   -3.095090   -8.553025
     33          1           0       -8.414248   -4.606970   -6.125532
     34          1           0      -11.940516   -5.338262   -9.537077
     35          1           0       -8.752857   -6.869319   -7.079309
     36          1           0      -10.531389   -7.248613   -8.787650
     37          7           0       -8.498573    1.118380   -7.579753
     38          6           0       -7.814699    1.160207   -8.868349
     39          6           0       -6.430713    0.466972   -8.854302
     40          8           0       -5.932832    0.069081   -9.913895
     41          6           0       -7.675484    2.613454   -9.359104
     42          6           0       -6.858599    3.496059   -8.411695
     43          7           0       -6.225024    4.542780   -8.988607
     44          8           0       -6.799700    3.281504   -7.198101
     45          1           0       -8.277915    1.906591   -6.973713
     46          1           0       -8.399696    0.619141   -9.615216
     47          1           0       -8.676045    3.052858   -9.455918
     48          1           0       -7.228170    2.591860  -10.357989
     49          1           0       -5.730887    5.195816   -8.395182
     50          1           0       -6.269199    4.730968   -9.979228
     51          7           0       -5.846325    0.355130   -7.643315
     52          6           0       -4.844122   -0.644401   -7.263651
     53          6           0       -5.671426   -1.909629   -6.882195
     54          8           0       -6.391969   -1.846545   -5.847186
     55          6           0       -3.975100   -0.054822   -6.132854
     56          6           0       -3.246757   -1.083795   -5.232667
     57          6           0       -3.616030   -0.931331   -3.743477
     58          7           0       -5.072900   -1.076035   -3.565168
     59          6           0       -5.904220   -0.072286   -3.244690
     60          7           0       -5.520151    0.873071   -2.359562
     61          7           0       -7.101028   -0.016185   -3.824721
     62          8           0       -5.679097   -2.871911   -7.698772
     63          1           0       -6.373892    0.738936   -6.869676
     64          1           0       -4.243362   -0.870722   -8.146188
     65          1           0       -3.258808    0.635883   -6.588228
     66          1           0       -4.623627    0.571780   -5.509656
     67          1           0       -3.472760   -2.110608   -5.546568
     68          1           0       -2.160010   -0.979397   -5.318075
     69          1           0       -3.102345   -1.686650   -3.140885
     70          1           0       -3.310459    0.054746   -3.379927
     71          1           0       -5.502372   -1.710304   -4.249272
     72          1           0       -6.129333    1.650719   -2.149978
     73          1           0       -4.808474    0.655597   -1.677071
     74          1           0       -7.850152    0.586001   -3.515144
     75          1           0       -7.273808   -0.578363   -4.660000
 ---------------------------------------------------------------------

 SCF Done:  E(RB3LYP) =  -1917.52751015     A.U. after    1 cycles

 Alpha  occ. eigenvalues --  -19.22215 -19.21806 -19.21690 -19.21667 -19.21181
 Alpha  occ. eigenvalues --  -19.21074 -19.20764 -14.50920 -14.50097 -14.48132
 Alpha  occ. eigenvalues --  -14.47865 -14.46185 -14.45769 -14.45488 -14.45323
 Alpha  occ. eigenvalues --  -14.44843 -10.45352 -10.39458 -10.39230 -10.39174
 Alpha  occ. eigenvalues --  -10.39036 -10.38661 -10.38538 -10.35149 -10.34036
 Alpha  occ. eigenvalues --  -10.33519 -10.32793 -10.32686 -10.30255 -10.29860
 Alpha  occ. eigenvalues --  -10.29678 -10.29363 -10.28032 -10.27440 -10.27392
 Alpha  occ. eigenvalues --  -10.27353 -10.27178 -10.27105 -10.26975  -1.14776
 Alpha  occ. eigenvalues --   -1.14016  -1.13746  -1.13660  -1.13250  -1.13241
 Alpha  occ. eigenvalues --   -1.12853  -1.07082  -1.05139  -1.03509  -1.03172
 Alpha  occ. eigenvalues --   -1.02359  -1.01980  -1.00959  -1.00471  -1.00273
 Alpha  occ. eigenvalues --   -0.93794  -0.90159  -0.89176  -0.87945  -0.86771
 Alpha  occ. eigenvalues --   -0.84715  -0.82602  -0.82393  -0.78980  -0.78027
 Alpha  occ. eigenvalues --   -0.76934  -0.75522  -0.74655  -0.71740  -0.70468
 Alpha  occ. eigenvalues --   -0.69978  -0.69701  -0.68935  -0.68643  -0.68103
 Alpha  occ. eigenvalues --   -0.67575  -0.67363  -0.67224  -0.65732  -0.65491
 Alpha  occ. eigenvalues --   -0.64549  -0.63403  -0.62825  -0.62793  -0.62517
 Alpha  occ. eigenvalues --   -0.61696  -0.61192  -0.60065  -0.59199  -0.58608
 Alpha  occ. eigenvalues --   -0.57959  -0.57531  -0.57162  -0.56613  -0.56319
 Alpha  occ. eigenvalues --   -0.55648  -0.55411  -0.55032  -0.54171  -0.53977
 Alpha  occ. eigenvalues --   -0.53505  -0.53080  -0.52808  -0.52473  -0.52181
 Alpha  occ. eigenvalues --   -0.51455  -0.51371  -0.50867  -0.50390  -0.50050
 Alpha  occ. eigenvalues --   -0.50003  -0.49808  -0.49673  -0.49014  -0.48664
 Alpha  occ. eigenvalues --   -0.48376  -0.47954  -0.47094  -0.46946  -0.46739
 Alpha  occ. eigenvalues --   -0.46121  -0.45536  -0.45421  -0.45039  -0.44669
 Alpha  occ. eigenvalues --   -0.44363  -0.43434  -0.42015  -0.41820  -0.40829
 Alpha  occ. eigenvalues --   -0.38576  -0.38352  -0.38234  -0.37040  -0.36869
 Alpha  occ. eigenvalues --   -0.36754  -0.36570  -0.36124  -0.35793  -0.35028
 Alpha  occ. eigenvalues --   -0.34820  -0.33970  -0.33577  -0.33349  -0.33291
 Alpha  occ. eigenvalues --   -0.32721
 Alpha virt. eigenvalues --   -0.10398  -0.09823  -0.09451  -0.08966  -0.08520
 Alpha virt. eigenvalues --   -0.08320  -0.07430  -0.06614  -0.06145  -0.05423
 Alpha virt. eigenvalues --   -0.01735  -0.01367  -0.00942  -0.00321   0.00371

 Mulliken charges:
               1
     1  N   -0.801975
     2  C   -0.112347
     3  C    0.624591
     4  O   -0.509709
     5  C   -0.420351
     6  C    0.634246
     7  N   -0.743933
     8  O   -0.535427
     9  H    0.432239
    10  H    0.215944
    11  H    0.223297
    12  H    0.209714
    13  H    0.362993
    14  H    0.357486
    15  H    0.430320
    16  H    0.415956
    17  N   -0.650234
    18  C   -0.068024
    19  C    0.618689
    20  O   -0.544835
    21  C   -0.378682
    22  C    0.165912
    23  C   -0.179874
    24  C   -0.201062
    25  C   -0.137838
    26  C   -0.134948
    27  C   -0.162356
    28  H    0.393251
    29  H    0.208624
    30  H    0.180633
    31  H    0.184840
    32  H    0.147872
    33  H    0.153659
    34  H    0.153978
    35  H    0.146912
    36  H    0.144640
    37  N   -0.625695
    38  C   -0.065777
    39  C    0.642544
    40  O   -0.589721
    41  C   -0.394846
    42  C    0.612734
    43  N   -0.734346
    44  O   -0.536772
    45  H    0.361978
    46  H    0.217972
    47  H    0.209588
    48  H    0.190345
    49  H    0.359578
    50  H    0.358248
    51  N   -0.582021
    52  C   -0.050178
    53  C    0.618596
    54  O   -0.613970
    55  C   -0.290796
    56  C   -0.303966
    57  C   -0.170602
    58  N   -0.585190
    59  C    0.756691
    60  N   -0.744740
    61  N   -0.782895
    62  O   -0.598164
    63  H    0.351986
    64  H    0.170421
    65  H    0.178415
    66  H    0.144394
    67  H    0.177513
    68  H    0.175737
    69  H    0.187634
    70  H    0.169863
    71  H    0.395809
    72  H    0.373704
    73  H    0.378261
    74  H    0.372623
    75  H    0.440849
 Sum of Mulliken charges =   1.00000

 Dipole moment (field-independent basis, Debye):
    X=            -29.6612    Y=             -2.7060    Z=            -31.1042  Tot=             43.0649
 Quadrupole moment (field-independent basis, Debye-Ang):
   XX=            -20.0988   YY=           -135.2284   ZZ=             42.1682
   XY=             37.6975   XZ=            215.0368   YZ=             38.2859

 Normal termination of Gaussian 16 at Fri Jun  3 06:00:31 2022.
