 Gaussian 16, Revision C.01,
 Gaussian 16:  ES64L-G16RevC.01  3-Jul-2019

 ----------------------------------------------------------------------
 # B3LYP/6-31G* empiricaldispersion=gd3 guess=read geom=check nosymm in
 tegral(ultrafinegrid)
 ----------------------------------------------------------------------

 ------------------------------------------------------
 Candidate Structure: Conf:123 Charge calc in gas phase
 ------------------------------------------------------
 Structure from the checkpoint file:  "conf-123.chk"
 Charge =  1 Multiplicity = 1

                          Input orientation:
 ---------------------------------------------------------------------
 Center     Atomic      Atomic             Coordinates (Angstroms)
 Number     Number       Type             X           Y           Z
 ---------------------------------------------------------------------
      1          7           0       -7.727670    1.035944   -8.976546
      2          6           0       -7.893663    1.354924   -7.518923
      3          6           0       -7.158560    0.389425   -6.575168
      4          8           0       -6.429340    0.838989   -5.699463
      5          6           0       -9.388479    1.373467   -7.181446
      6          6           0      -10.137181    2.450533   -7.960533
      7          7           0      -11.296972    2.856479   -7.404450
      8          8           0       -9.712630    2.892479   -9.033288
      9          1           0       -8.256255    1.773162   -9.480474
     10          1           0       -7.447096    2.336383   -7.353444
     11          1           0       -9.835307    0.400657   -7.418093
     12          1           0       -9.505285    1.512774   -6.103377
     13          1           0      -11.869258    3.528428   -7.898617
     14          1           0      -11.625987    2.478896   -6.526410
     15          1           0       -6.729890    0.986901   -9.236293
     16          1           0       -8.141725    0.077883   -9.196985
     17          7           0       -7.435116   -0.938691   -6.716594
     18          6           0       -7.190365   -1.857227   -5.611866
     19          6           0       -6.304975   -3.047948   -6.010499
     20          8           0       -6.632775   -4.208750   -5.717513
     21          6           0       -8.522856   -2.347184   -5.002471
     22          6           0       -9.488142   -1.221648   -4.687958
     23          6           0       -9.136032   -0.177561   -3.818856
     24          6           0      -10.765059   -1.209422   -5.262867
     25          6           0      -10.039331    0.846096   -3.529812
     26          6           0      -11.677532   -0.191498   -4.970565
     27          6           0      -11.316947    0.840905   -4.101631
     28          1           0       -8.054240   -1.248920   -7.472488
     29          1           0       -6.626980   -1.281225   -4.869259
     30          1           0       -8.995063   -3.042692   -5.704919
     31          1           0       -8.293078   -2.932686   -4.105837
     32          1           0       -8.148499   -0.157736   -3.365955
     33          1           0      -11.054265   -2.008157   -5.941809
     34          1           0       -9.750431    1.641483   -2.848754
     35          1           0      -12.670493   -0.216306   -5.411584
     36          1           0      -12.029556    1.622521   -3.850072
     37          7           0       -5.135288   -2.828446   -6.663275
     38          6           0       -4.615261   -1.625817   -7.306123
     39          6           0       -5.317025   -1.266632   -8.636304
     40          8           0       -5.226146   -0.112267   -9.069374
     41          6           0       -3.102236   -1.795235   -7.567825
     42          6           0       -2.783271   -2.974929   -8.490102
     43          7           0       -1.784271   -2.787042   -9.373654
     44          8           0       -3.404030   -4.046550   -8.421665
     45          1           0       -4.623419   -3.672917   -6.907963
     46          1           0       -4.751288   -0.758462   -6.655665
     47          1           0       -2.592719   -1.969229   -6.612208
     48          1           0       -2.724861   -0.855270   -7.980006
     49          1           0       -1.486300   -3.567229   -9.945382
     50          1           0       -1.259225   -1.926117   -9.428155
     51          7           0       -5.955553   -2.275576   -9.257714
     52          6           0       -6.804761   -2.155622  -10.443643
     53          6           0       -8.287973   -2.358639   -9.958323
     54          8           0       -8.924271   -3.380374  -10.284620
     55          6           0       -6.308682   -3.021059  -11.639879
     56          6           0       -5.381128   -4.225126  -11.347079
     57          6           0       -6.093336   -5.548736  -11.016194
     58          7           0       -7.173014   -5.394356  -10.044768
     59          6           0       -7.074281   -5.423565   -8.716381
     60          7           0       -5.947376   -5.794037   -8.075905
     61          7           0       -8.161004   -5.108010   -7.987261
     62          8           0       -8.720698   -1.440438   -9.185500
     63          1           0       -5.924360   -3.171798   -8.793374
     64          1           0       -6.726988   -1.107960  -10.743035
     65          1           0       -7.189350   -3.345571  -12.205745
     66          1           0       -5.750385   -2.348643  -12.298717
     67          1           0       -4.772799   -4.412638  -12.239825
     68          1           0       -4.673734   -3.972442  -10.550688
     69          1           0       -6.561066   -5.955044  -11.918208
     70          1           0       -5.384392   -6.306281  -10.666801
     71          1           0       -7.973722   -4.834867  -10.382000
     72          1           0       -5.926121   -5.641355   -7.069420
     73          1           0       -5.054998   -5.746369   -8.550064
     74          1           0       -8.040234   -4.920926   -6.996386
     75          1           0       -8.949594   -4.687225   -8.469761
 ---------------------------------------------------------------------

 SCF Done:  E(RB3LYP) =  -1917.54514866     A.U. after    3 cycles

 Alpha  occ. eigenvalues --  -19.24946 -19.24434 -19.23845 -19.22917 -19.22495
 Alpha  occ. eigenvalues --  -19.21354 -19.21160 -14.51574 -14.48709 -14.48361
 Alpha  occ. eigenvalues --  -14.48280 -14.47955 -14.47642 -14.47606 -14.46627
 Alpha  occ. eigenvalues --  -14.46115 -10.44637 -10.42552 -10.41511 -10.41017
 Alpha  occ. eigenvalues --  -10.40211 -10.40063 -10.39217 -10.36111 -10.36108
 Alpha  occ. eigenvalues --  -10.34681 -10.33763 -10.33727 -10.32739 -10.30845
 Alpha  occ. eigenvalues --  -10.29427 -10.29418 -10.29310 -10.29227 -10.28376
 Alpha  occ. eigenvalues --  -10.28305 -10.28239 -10.28186 -10.28114  -1.16684
 Alpha  occ. eigenvalues --   -1.16082  -1.15607  -1.14910  -1.14508  -1.14087
 Alpha  occ. eigenvalues --   -1.13250  -1.07877  -1.05969  -1.05424  -1.03926
 Alpha  occ. eigenvalues --   -1.03488  -1.03119  -1.02724  -1.01236  -1.01076
 Alpha  occ. eigenvalues --   -0.94912  -0.91054  -0.90155  -0.89693  -0.88203
 Alpha  occ. eigenvalues --   -0.85362  -0.83920  -0.83584  -0.80556  -0.79052
 Alpha  occ. eigenvalues --   -0.78536  -0.76623  -0.75056  -0.72818  -0.71351
 Alpha  occ. eigenvalues --   -0.71025  -0.70469  -0.70322  -0.69840  -0.69553
 Alpha  occ. eigenvalues --   -0.69065  -0.68793  -0.67210  -0.66815  -0.66342
 Alpha  occ. eigenvalues --   -0.66272  -0.65326  -0.63866  -0.63559  -0.62650
 Alpha  occ. eigenvalues --   -0.62008  -0.61301  -0.61244  -0.60569  -0.59866
 Alpha  occ. eigenvalues --   -0.58991  -0.58658  -0.58393  -0.58146  -0.57661
 Alpha  occ. eigenvalues --   -0.56838  -0.56513  -0.56399  -0.55312  -0.55020
 Alpha  occ. eigenvalues --   -0.54947  -0.54516  -0.54145  -0.53948  -0.53099
 Alpha  occ. eigenvalues --   -0.52901  -0.52679  -0.52336  -0.52165  -0.51647
 Alpha  occ. eigenvalues --   -0.51382  -0.51066  -0.50770  -0.50566  -0.49830
 Alpha  occ. eigenvalues --   -0.49639  -0.49442  -0.49001  -0.48506  -0.47877
 Alpha  occ. eigenvalues --   -0.47755  -0.46782  -0.46589  -0.46104  -0.44774
 Alpha  occ. eigenvalues --   -0.44546  -0.44386  -0.43309  -0.43012  -0.41003
 Alpha  occ. eigenvalues --   -0.40059  -0.39717  -0.39236  -0.39018  -0.38761
 Alpha  occ. eigenvalues --   -0.37500  -0.37359  -0.37287  -0.37013  -0.36313
 Alpha  occ. eigenvalues --   -0.36265  -0.35750  -0.35229  -0.34329  -0.34279
 Alpha  occ. eigenvalues --   -0.33871
 Alpha virt. eigenvalues --   -0.11692  -0.10848  -0.10771  -0.09956  -0.09802
 Alpha virt. eigenvalues --   -0.09554  -0.09358  -0.07474  -0.07061  -0.04393
 Alpha virt. eigenvalues --   -0.03331  -0.01964  -0.01717  -0.00881  -0.00335

 Mulliken charges:
               1
     1  N   -0.813513
     2  C   -0.109889
     3  C    0.630444
     4  O   -0.514531
     5  C   -0.415478
     6  C    0.637896
     7  N   -0.741768
     8  O   -0.534168
     9  H    0.418505
    10  H    0.217054
    11  H    0.218863
    12  H    0.212188
    13  H    0.365943
    14  H    0.357723
    15  H    0.427403
    16  H    0.430488
    17  N   -0.651653
    18  C   -0.081131
    19  C    0.625779
    20  O   -0.555629
    21  C   -0.356256
    22  C    0.173404
    23  C   -0.178982
    24  C   -0.197329
    25  C   -0.138100
    26  C   -0.136878
    27  C   -0.159162
    28  H    0.389986
    29  H    0.220014
    30  H    0.144180
    31  H    0.194953
    32  H    0.152269
    33  H    0.143449
    34  H    0.158300
    35  H    0.152097
    36  H    0.150215
    37  N   -0.631799
    38  C   -0.060615
    39  C    0.642219
    40  O   -0.583270
    41  C   -0.395842
    42  C    0.626535
    43  N   -0.725830
    44  O   -0.560801
    45  H    0.369957
    46  H    0.221335
    47  H    0.217641
    48  H    0.197682
    49  H    0.366352
    50  H    0.367945
    51  N   -0.605679
    52  C   -0.058905
    53  C    0.602554
    54  O   -0.553188
    55  C   -0.301159
    56  C   -0.302140
    57  C   -0.178548
    58  N   -0.592197
    59  C    0.718778
    60  N   -0.767642
    61  N   -0.781100
    62  O   -0.604622
    63  H    0.361137
    64  H    0.169747
    65  H    0.177838
    66  H    0.166066
    67  H    0.166772
    68  H    0.165495
    69  H    0.193984
    70  H    0.174124
    71  H    0.403623
    72  H    0.385893
    73  H    0.386662
    74  H    0.398384
    75  H    0.385933
 Sum of Mulliken charges =   1.00000

 Dipole moment (field-independent basis, Debye):
    X=            -29.9836    Y=             -8.5444    Z=            -39.3544  Tot=             50.2074
 Quadrupole moment (field-independent basis, Debye-Ang):
   XX=             36.4087   YY=           -171.9741   ZZ=            121.2532
   XY=             15.1547   XZ=            213.8470   YZ=             91.9960

 Normal termination of Gaussian 16 at Fri Jun  3 06:01:07 2022.
