 Gaussian 16, Revision C.01,
 Gaussian 16:  ES64L-G16RevC.01  3-Jul-2019

 ----------------------------------------------------------------------
 # B3LYP/6-31G* empiricaldispersion=gd3 guess=read geom=check nosymm in
 tegral(ultrafinegrid)
 ----------------------------------------------------------------------

 ------------------------------------------------------
 Candidate Structure: Conf:255 Charge calc in gas phase
 ------------------------------------------------------
 Structure from the checkpoint file:  "conf-255.chk"
 Charge =  1 Multiplicity = 1

                          Input orientation:
 ---------------------------------------------------------------------
 Center     Atomic      Atomic             Coordinates (Angstroms)
 Number     Number       Type             X           Y           Z
 ---------------------------------------------------------------------
      1          7           0       -4.331362   -1.238377   -7.154759
      2          6           0       -4.311059   -1.515359   -8.630147
      3          6           0       -5.617515   -1.155757   -9.356329
      4          8           0       -5.576394   -0.462056  -10.365175
      5          6           0       -3.982967   -2.995463   -8.853593
      6          6           0       -2.604933   -3.363821   -8.312439
      7          7           0       -2.047560   -4.459955   -8.866568
      8          8           0       -2.061213   -2.711116   -7.415437
      9          1           0       -5.076110   -1.832581   -6.675099
     10          1           0       -3.539777   -0.877839   -9.064606
     11          1           0       -4.730932   -3.621827   -8.353357
     12          1           0       -4.059544   -3.216519   -9.921530
     13          1           0       -1.158473   -4.789667   -8.514364
     14          1           0       -2.511550   -4.979382   -9.599152
     15          1           0       -3.389988   -1.508266   -6.811715
     16          1           0       -4.578737   -0.254640   -6.963528
     17          7           0       -6.764136   -1.713595   -8.872111
     18          6           0       -7.936036   -1.835106   -9.730146
     19          6           0       -9.195587   -1.208478   -9.112407
     20          8           0      -10.267567   -1.833666   -9.085316
     21          6           0       -8.188769   -3.312473  -10.105153
     22          6           0       -6.950888   -4.021450  -10.617538
     23          6           0       -6.251124   -3.552666  -11.740068
     24          6           0       -6.483736   -5.173763   -9.973224
     25          6           0       -5.119248   -4.222371  -12.206667
     26          6           0       -5.355683   -5.854128  -10.440970
     27          6           0       -4.668997   -5.379833  -11.560976
     28          1           0       -6.728858   -2.284635   -8.021475
     29          1           0       -7.704154   -1.253535  -10.629395
     30          1           0       -8.567079   -3.838611   -9.221895
     31          1           0       -8.996346   -3.343447  -10.844364
     32          1           0       -6.586797   -2.655705  -12.253440
     33          1           0       -7.010941   -5.549718   -9.099550
     34          1           0       -4.595571   -3.847797  -13.081540
     35          1           0       -5.026047   -6.758994   -9.937340
     36          1           0       -3.805663   -5.917251  -11.945496
     37          7           0       -9.145867    0.054458   -8.617485
     38          6           0       -8.006639    0.920479   -8.331417
     39          6           0       -7.192923    0.502034   -7.085063
     40          8           0       -6.035034    0.916207   -6.957931
     41          6           0       -8.498517    2.372875   -8.143301
     42          6           0       -9.484741    2.523954   -6.982053
     43          7           0       -9.364677    3.641370   -6.239799
     44          8           0      -10.351039    1.669079   -6.743069
     45          1           0      -10.018016    0.382655   -8.209121
     46          1           0       -7.300344    0.907323   -9.165025
     47          1           0       -9.006495    2.698398   -9.059284
     48          1           0       -7.620659    3.010029   -8.004853
     49          1           0      -10.047417    3.820028   -5.514329
     50          1           0       -8.675736    4.353714   -6.434101
     51          7           0       -7.839806   -0.267174   -6.189703
     52          6           0       -7.245444   -0.902893   -5.012895
     53          6           0       -7.161623   -2.442782   -5.326924
     54          8           0       -7.886639   -3.251765   -4.714329
     55          6           0       -7.922598   -0.470970   -3.678327
     56          6           0       -9.358758    0.104039   -3.730423
     57          6           0      -10.493180   -0.934225   -3.671034
     58          7           0      -10.285251   -2.065270   -4.571378
     59          6           0      -10.633033   -2.150047   -5.854792
     60          7           0      -11.413753   -1.234008   -6.462113
     61          7           0      -10.218358   -3.218928   -6.560298
     62          8           0       -6.357704   -2.746197   -6.269835
     63          1           0       -8.792834   -0.508446   -6.420729
     64          1           0       -6.213973   -0.544180   -4.987737
     65          1           0       -7.876230   -1.321840   -2.989154
     66          1           0       -7.288007    0.309338   -3.246712
     67          1           0       -9.494110    0.764473   -2.865718
     68          1           0       -9.479833    0.738911   -4.613964
     69          1           0      -10.553935   -1.361839   -2.665573
     70          1           0      -11.466041   -0.473777   -3.871193
     71          1           0       -9.477554   -2.662071   -4.327589
     72          1           0      -11.499787   -1.309908   -7.473836
     73          1           0      -11.492659   -0.300610   -6.079942
     74          1           0      -10.292751   -3.187812   -7.572684
     75          1           0       -9.512779   -3.818073   -6.142029
 ---------------------------------------------------------------------

 SCF Done:  E(RB3LYP) =  -1917.54512990     A.U. after    3 cycles

 Alpha  occ. eigenvalues --  -19.24948 -19.24434 -19.23853 -19.22921 -19.22494
 Alpha  occ. eigenvalues --  -19.21355 -19.21162 -14.51576 -14.48714 -14.48366
 Alpha  occ. eigenvalues --  -14.48289 -14.47958 -14.47645 -14.47607 -14.46635
 Alpha  occ. eigenvalues --  -14.46114 -10.44639 -10.42553 -10.41513 -10.41024
 Alpha  occ. eigenvalues --  -10.40215 -10.40063 -10.39220 -10.36116 -10.36113
 Alpha  occ. eigenvalues --  -10.34684 -10.33764 -10.33733 -10.32742 -10.30846
 Alpha  occ. eigenvalues --  -10.29426 -10.29423 -10.29309 -10.29232 -10.28375
 Alpha  occ. eigenvalues --  -10.28305 -10.28239 -10.28185 -10.28114  -1.16687
 Alpha  occ. eigenvalues --   -1.16084  -1.15612  -1.14915  -1.14509  -1.14087
 Alpha  occ. eigenvalues --   -1.13251  -1.07880  -1.05975  -1.05429  -1.03931
 Alpha  occ. eigenvalues --   -1.03491  -1.03123  -1.02728  -1.01236  -1.01074
 Alpha  occ. eigenvalues --   -0.94911  -0.91060  -0.90159  -0.89697  -0.88204
 Alpha  occ. eigenvalues --   -0.85366  -0.83921  -0.83583  -0.80559  -0.79053
 Alpha  occ. eigenvalues --   -0.78537  -0.76624  -0.75060  -0.72822  -0.71354
 Alpha  occ. eigenvalues --   -0.71031  -0.70469  -0.70324  -0.69841  -0.69554
 Alpha  occ. eigenvalues --   -0.69067  -0.68795  -0.67212  -0.66819  -0.66343
 Alpha  occ. eigenvalues --   -0.66274  -0.65330  -0.63866  -0.63564  -0.62656
 Alpha  occ. eigenvalues --   -0.62011  -0.61304  -0.61248  -0.60571  -0.59868
 Alpha  occ. eigenvalues --   -0.58992  -0.58660  -0.58397  -0.58148  -0.57663
 Alpha  occ. eigenvalues --   -0.56840  -0.56515  -0.56400  -0.55315  -0.55020
 Alpha  occ. eigenvalues --   -0.54948  -0.54518  -0.54148  -0.53949  -0.53101
 Alpha  occ. eigenvalues --   -0.52904  -0.52683  -0.52339  -0.52162  -0.51651
 Alpha  occ. eigenvalues --   -0.51384  -0.51069  -0.50775  -0.50572  -0.49833
 Alpha  occ. eigenvalues --   -0.49643  -0.49446  -0.49003  -0.48509  -0.47879
 Alpha  occ. eigenvalues --   -0.47760  -0.46785  -0.46587  -0.46108  -0.44782
 Alpha  occ. eigenvalues --   -0.44547  -0.44390  -0.43309  -0.43011  -0.41006
 Alpha  occ. eigenvalues --   -0.40061  -0.39721  -0.39242  -0.39018  -0.38765
 Alpha  occ. eigenvalues --   -0.37499  -0.37359  -0.37290  -0.37015  -0.36316
 Alpha  occ. eigenvalues --   -0.36270  -0.35752  -0.35231  -0.34332  -0.34282
 Alpha  occ. eigenvalues --   -0.33871
 Alpha virt. eigenvalues --   -0.11691  -0.10853  -0.10776  -0.09961  -0.09802
 Alpha virt. eigenvalues --   -0.09555  -0.09364  -0.07475  -0.07063  -0.04398
 Alpha virt. eigenvalues --   -0.03334  -0.01965  -0.01719  -0.00882  -0.00337

 Mulliken charges:
               1
     1  N   -0.813572
     2  C   -0.109875
     3  C    0.630420
     4  O   -0.514495
     5  C   -0.415440
     6  C    0.637863
     7  N   -0.741777
     8  O   -0.534129
     9  H    0.430459
    10  H    0.217063
    11  H    0.218854
    12  H    0.212160
    13  H    0.365940
    14  H    0.357695
    15  H    0.418490
    16  H    0.427513
    17  N   -0.651667
    18  C   -0.081007
    19  C    0.625677
    20  O   -0.555532
    21  C   -0.356301
    22  C    0.173442
    23  C   -0.178983
    24  C   -0.197353
    25  C   -0.138091
    26  C   -0.136823
    27  C   -0.159179
    28  H    0.389904
    29  H    0.219992
    30  H    0.144279
    31  H    0.194909
    32  H    0.152265
    33  H    0.143424
    34  H    0.158288
    35  H    0.152090
    36  H    0.150187
    37  N   -0.631994
    38  C   -0.060695
    39  C    0.642098
    40  O   -0.583306
    41  C   -0.395602
    42  C    0.626589
    43  N   -0.725795
    44  O   -0.560823
    45  H    0.370131
    46  H    0.221321
    47  H    0.217646
    48  H    0.197537
    49  H    0.366334
    50  H    0.367958
    51  N   -0.605649
    52  C   -0.058905
    53  C    0.602551
    54  O   -0.553201
    55  C   -0.301259
    56  C   -0.301949
    57  C   -0.178582
    58  N   -0.592164
    59  C    0.718763
    60  N   -0.767663
    61  N   -0.781040
    62  O   -0.604586
    63  H    0.361148
    64  H    0.169790
    65  H    0.177867
    66  H    0.166079
    67  H    0.166705
    68  H    0.165329
    69  H    0.193982
    70  H    0.174171
    71  H    0.403643
    72  H    0.385805
    73  H    0.386756
    74  H    0.398399
    75  H    0.385919
 Sum of Mulliken charges =   1.00000

 Dipole moment (field-independent basis, Debye):
    X=            -36.1788    Y=             -2.7333    Z=            -35.1519  Tot=             50.5177
 Quadrupole moment (field-independent basis, Debye-Ang):
   XX=             92.7389   YY=           -162.6762   ZZ=             62.0125
   XY=            -19.1968   XZ=            235.3420   YZ=             50.5998

 Normal termination of Gaussian 16 at Fri Jun  3 06:01:08 2022.
