 Gaussian 16, Revision C.01,
 Gaussian 16:  ES64L-G16RevC.01  3-Jul-2019

 ----------------------------------------------------------------------
 # B3LYP/6-31G* empiricaldispersion=gd3 guess=read geom=check nosymm in
 tegral(ultrafinegrid)
 ----------------------------------------------------------------------

 ------------------------------------------------------
 Candidate Structure: Conf:797 Charge calc in gas phase
 ------------------------------------------------------
 Structure from the checkpoint file:  "conf-797.chk"
 Charge =  1 Multiplicity = 1

                          Input orientation:
 ---------------------------------------------------------------------
 Center     Atomic      Atomic             Coordinates (Angstroms)
 Number     Number       Type             X           Y           Z
 ---------------------------------------------------------------------
      1          7           0        8.920982   16.318867   12.797798
      2          6           0        9.906345   16.731198   11.728735
      3          6           0        9.250652   17.981415   11.113931
      4          8           0        8.147325   17.837614   10.601900
      5          6           0       10.141965   15.633140   10.683373
      6          6           0       10.487613   14.219854   11.236204
      7          6           0       11.323520   14.266336   12.502719
      8          8           0       10.788205   14.613105   13.574814
      9          8           0       12.582116   13.983812   12.380374
     10          1           0       13.115954   14.086568   13.298254
     11          1           0        7.995215   16.170981   12.379782
     12          1           0       10.829609   16.933557   12.267579
     13          1           0       10.966149   15.989370   10.055232
     14          1           0        9.261353   15.562716   10.037977
     15          1           0        9.565369   13.685301   11.488168
     16          1           0       11.001656   13.649135   10.460656
     17          1           0        9.311570   15.469913   13.275120
     18          1           0        8.875431   17.096002   13.478977
     19          7           0        9.878227   19.177846   11.218215
     20          6           0       11.089074   19.518993   11.946533
     21          6           0       11.029768   19.047151   13.430652
     22          8           0        9.990505   18.656062   13.956540
     23          6           0       11.305836   21.048718   11.873795
     24          6           0       11.484812   21.629061   10.454335
     25          6           0       11.666519   23.151146   10.554349
     26          6           0       12.657332   20.980448    9.706459
     27          1           0        9.321966   19.945097   10.856725
     28          1           0       11.947699   19.020467   11.477023
     29          1           0       12.198236   21.302993   12.459703
     30          1           0       10.460024   21.535244   12.377904
     31          1           0       10.568202   21.442282    9.875969
     32          1           0       10.826066   23.624953   11.074012
     33          1           0       12.585405   23.400255   11.099723
     34          1           0       11.740025   23.597353    9.557652
     35          1           0       13.593089   21.093953   10.269622
     36          1           0       12.495057   19.912185    9.519813
     37          1           0       12.800973   21.457860    8.732218
     38          7           0       12.257863   19.058620   14.023505
     39          6           0       12.666071   18.888919   15.442088
     40          6           0       13.883465   17.939756   15.547008
     41          8           0       14.461478   17.776020   16.585426
     42          6           0       11.571590   18.603257   16.492734
     43          6           0       10.870976   17.236844   16.582213
     44          6           0       11.755917   16.033137   16.926765
     45          7           0       12.466790   15.592930   15.731737
     46          6           0       13.460878   14.625518   15.833369
     47          7           0       13.922790   13.997195   16.835552
     48          7           0       14.057982   14.381276   14.535928
     49          8           0       14.346306   17.418370   14.372832
     50          1           0       13.634465   17.503634   13.713435
     51          1           0       12.964041   19.553587   13.487567
     52          1           0       13.085517   19.860572   15.734363
     53          1           0       10.809370   19.379784   16.380742
     54          1           0       12.074382   18.788513   17.448494
     55          1           0       10.113383   17.337545   17.368482
     56          1           0       10.319507   17.034349   15.657882
     57          1           0       11.137373   15.225880   17.349284
     58          1           0       12.498914   16.311713   17.681791
     59          1           0       11.842870   15.393057   14.950865
     60          1           0       13.402786   14.188309   17.692385
     61          1           0       14.737287   13.628548   14.658171
     62          1           0       14.572304   15.226175   14.269134
 ---------------------------------------------------------------------

 SCF Done:  E(RB3LYP) =  -1447.47075048     A.U. after    1 cycles

 Alpha  occ. eigenvalues --  -19.31044 -19.30427 -19.27944 -19.27852 -19.26024
 Alpha  occ. eigenvalues --  -19.24375 -14.58239 -14.52147 -14.50722 -14.46132
 Alpha  occ. eigenvalues --  -14.44242 -14.39101 -10.45834 -10.44891 -10.43796
 Alpha  occ. eigenvalues --  -10.43289 -10.40594 -10.38734 -10.37837 -10.37437
 Alpha  occ. eigenvalues --  -10.34878 -10.33735 -10.32717 -10.31655 -10.31063
 Alpha  occ. eigenvalues --  -10.30842 -10.29561 -10.28448 -10.27576  -1.22901
 Alpha  occ. eigenvalues --   -1.21354  -1.19646  -1.18410  -1.14436  -1.13325
 Alpha  occ. eigenvalues --   -1.12749  -1.08023  -1.07560  -1.07285  -0.99310
 Alpha  occ. eigenvalues --   -0.95059  -0.94658  -0.94048  -0.91727  -0.88326
 Alpha  occ. eigenvalues --   -0.87679  -0.85277  -0.79957  -0.79501  -0.79072
 Alpha  occ. eigenvalues --   -0.77768  -0.74805  -0.74006  -0.73437  -0.72890
 Alpha  occ. eigenvalues --   -0.71561  -0.71191  -0.69420  -0.68759  -0.67888
 Alpha  occ. eigenvalues --   -0.67590  -0.65374  -0.64707  -0.64078  -0.63741
 Alpha  occ. eigenvalues --   -0.62924  -0.62762  -0.61051  -0.60136  -0.59647
 Alpha  occ. eigenvalues --   -0.59451  -0.58995  -0.58489  -0.57407  -0.57168
 Alpha  occ. eigenvalues --   -0.56715  -0.55952  -0.55115  -0.55063  -0.54543
 Alpha  occ. eigenvalues --   -0.54254  -0.54150  -0.53608  -0.53171  -0.52395
 Alpha  occ. eigenvalues --   -0.51827  -0.51092  -0.50615  -0.50211  -0.49769
 Alpha  occ. eigenvalues --   -0.49711  -0.49416  -0.49099  -0.47913  -0.47054
 Alpha  occ. eigenvalues --   -0.45845  -0.45045  -0.44911  -0.44681  -0.44346
 Alpha  occ. eigenvalues --   -0.44277  -0.44174  -0.43187  -0.42216  -0.41888
 Alpha  occ. eigenvalues --   -0.41210  -0.40218  -0.39515  -0.39075  -0.37450
 Alpha  occ. eigenvalues --   -0.36178  -0.33154
 Alpha virt. eigenvalues --   -0.14202  -0.13856  -0.12872  -0.10341  -0.09618
 Alpha virt. eigenvalues --   -0.07307  -0.06008  -0.05548  -0.04409  -0.02538
 Alpha virt. eigenvalues --   -0.02029  -0.01250  -0.01010  -0.00496  -0.00218

 Mulliken charges:
               1
     1  N   -0.767825
     2  C   -0.111616
     3  C    0.625822
     4  O   -0.495193
     5  C   -0.298682
     6  C   -0.367392
     7  C    0.606921
     8  O   -0.549320
     9  O   -0.558837
    10  H    0.473605
    11  H    0.409477
    12  H    0.183761
    13  H    0.194735
    14  H    0.213338
    15  H    0.191812
    16  H    0.217130
    17  H    0.435384
    18  H    0.441179
    19  N   -0.602534
    20  C   -0.053988
    21  C    0.629506
    22  O   -0.539483
    23  C   -0.308817
    24  C   -0.085036
    25  C   -0.448690
    26  C   -0.456324
    27  H    0.365822
    28  H    0.169707
    29  H    0.151256
    30  H    0.175545
    31  H    0.139265
    32  H    0.158360
    33  H    0.154766
    34  H    0.173185
    35  H    0.147388
    36  H    0.141021
    37  H    0.181030
    38  N   -0.666739
    39  C   -0.065671
    40  C    0.665743
    41  O   -0.434321
    42  C   -0.268002
    43  C   -0.284485
    44  C   -0.151642
    45  N   -0.656003
    46  C    0.577133
    47  N   -0.588955
    48  N   -0.853613
    49  O   -0.596653
    50  H    0.406158
    51  H    0.354649
    52  H    0.211819
    53  H    0.173950
    54  H    0.189489
    55  H    0.167912
    56  H    0.124799
    57  H    0.155917
    58  H    0.188502
    59  H    0.363509
    60  H    0.304750
    61  H    0.369015
    62  H    0.376464
 Sum of Mulliken charges =   1.00000

 Dipole moment (field-independent basis, Debye):
    X=             51.2201    Y=             85.9202    Z=             59.4085  Tot=            116.3406
 Quadrupole moment (field-independent basis, Debye-Ang):
   XX=            375.4142   YY=           1402.8309   ZZ=            574.8702
   XY=            932.0841   XZ=            617.8565   YZ=           1064.5730

 Normal termination of Gaussian 16 at Tue May 24 03:34:15 2022.
