 Gaussian 16, Revision C.01,
 Gaussian 16:  ES64L-G16RevC.01  3-Jul-2019

 ----------------------------------------------------------------------
 # B3LYP/6-31G* empiricaldispersion=gd3 guess=read geom=check nosymm in
 tegral(ultrafinegrid)
 ----------------------------------------------------------------------

 ------------------------------------------------------
 Candidate Structure: Conf:883 Charge calc in gas phase
 ------------------------------------------------------
 Structure from the checkpoint file:  "conf-883.chk"
 Charge =  1 Multiplicity = 1

                          Input orientation:
 ---------------------------------------------------------------------
 Center     Atomic      Atomic             Coordinates (Angstroms)
 Number     Number       Type             X           Y           Z
 ---------------------------------------------------------------------
      1          7           0       10.035799   17.310919   10.659356
      2          6           0       10.949419   16.175223   11.058727
      3          6           0       12.187310   16.367622   10.167164
      4          8           0       12.018518   16.326900    8.955111
      5          6           0       10.321297   14.792929   10.830314
      6          6           0        8.918466   14.571869   11.463416
      7          6           0        8.828511   15.277052   12.797914
      8          8           0        8.620564   16.500888   12.833538
      9          8           0        9.090931   14.545065   13.845986
     10          1           0        9.208059   15.113720   14.702533
     11          1           0        9.848370   17.266726    9.650662
     12          1           0       11.142367   16.333392   12.118935
     13          1           0       11.027814   14.069770   11.252373
     14          1           0       10.273308   14.599326    9.754627
     15          1           0        8.139187   14.987239   10.817177
     16          1           0        8.737448   13.500685   11.571564
     17          1           0        9.173492   17.256912   11.239970
     18          1           0       10.545349   18.190976   10.874395
     19          7           0       13.385160   16.572172   10.765859
     20          6           0       13.631798   16.990905   12.143430
     21          6           0       12.712499   18.178482   12.551881
     22          8           0       12.129412   18.865228   11.704968
     23          6           0       15.129360   17.386442   12.234874
     24          6           0       15.721100   17.682034   13.627039
     25          6           0       15.586264   16.495408   14.594718
     26          6           0       17.200112   18.069267   13.465085
     27          1           0       14.124501   16.760044   10.095713
     28          1           0       13.445004   16.145928   12.818102
     29          1           0       15.280964   18.258169   11.584337
     30          1           0       15.697650   16.555226   11.795447
     31          1           0       15.203767   18.551433   14.055343
     32          1           0       16.068270   15.601651   14.180080
     33          1           0       16.069551   16.721983   15.550194
     34          1           0       14.545348   16.227025   14.821474
     35          1           0       17.780127   17.235569   13.050922
     36          1           0       17.318690   18.928792   12.796090
     37          1           0       17.639042   18.332810   14.432664
     38          7           0       12.616040   18.347819   13.887829
     39          6           0       12.284781   19.579298   14.628124
     40          6           0       11.964680   19.247988   16.088467
     41          8           0       11.456136   20.037578   16.845661
     42          6           0       11.236110   20.532912   14.020533
     43          6           0        9.804917   20.035539   13.766705
     44          6           0        9.060771   19.412623   14.958835
     45          7           0        9.499750   18.029541   15.118040
     46          6           0        9.536837   17.323495   16.291980
     47          7           0        9.425773   17.679799   17.512751
     48          7           0        9.878152   15.936367   16.022044
     49          8           0       12.370807   18.010713   16.469720
     50          1           0       12.036943   17.885021   17.383250
     51          1           0       13.138259   17.689467   14.452609
     52          1           0       13.214705   20.168351   14.688653
     53          1           0       11.641104   20.909609   13.078977
     54          1           0       11.198118   21.375714   14.718336
     55          1           0        9.231335   20.899612   13.410793
     56          1           0        9.810339   19.313118   12.940046
     57          1           0        7.977001   19.448269   14.782505
     58          1           0        9.264168   19.974187   15.872454
     59          1           0        9.269209   17.458982   14.308222
     60          1           0        9.142939   18.654991   17.612242
     61          1           0        9.760293   15.427324   16.898909
     62          1           0       10.872487   15.898356   15.785982
 ---------------------------------------------------------------------

 SCF Done:  E(RB3LYP) =  -1447.48678287     A.U. after    1 cycles

 Alpha  occ. eigenvalues --  -19.31622 -19.31173 -19.28124 -19.26366 -19.25468
 Alpha  occ. eigenvalues --  -19.25404 -14.58347 -14.50258 -14.49849 -14.47049
 Alpha  occ. eigenvalues --  -14.45113 -14.39554 -10.45998 -10.43924 -10.43365
 Alpha  occ. eigenvalues --  -10.43113 -10.40218 -10.38899 -10.37822 -10.36896
 Alpha  occ. eigenvalues --  -10.34676 -10.33647 -10.32076 -10.31862 -10.30972
 Alpha  occ. eigenvalues --  -10.30014 -10.29668 -10.28865 -10.27433  -1.23365
 Alpha  occ. eigenvalues --   -1.22327  -1.18524  -1.17418  -1.14731  -1.13381
 Alpha  occ. eigenvalues --   -1.12877  -1.08453  -1.06801  -1.06483  -0.99936
 Alpha  occ. eigenvalues --   -0.95339  -0.94931  -0.93614  -0.91350  -0.88200
 Alpha  occ. eigenvalues --   -0.87370  -0.85504  -0.80010  -0.79503  -0.79376
 Alpha  occ. eigenvalues --   -0.77460  -0.74471  -0.74069  -0.73601  -0.72747
 Alpha  occ. eigenvalues --   -0.71661  -0.70591  -0.68810  -0.68600  -0.67726
 Alpha  occ. eigenvalues --   -0.66414  -0.65371  -0.64370  -0.63512  -0.63112
 Alpha  occ. eigenvalues --   -0.62746  -0.62433  -0.61318  -0.60524  -0.60030
 Alpha  occ. eigenvalues --   -0.59708  -0.59044  -0.58683  -0.58029  -0.57335
 Alpha  occ. eigenvalues --   -0.56580  -0.55850  -0.55433  -0.54831  -0.54537
 Alpha  occ. eigenvalues --   -0.54145  -0.53968  -0.53820  -0.52716  -0.51721
 Alpha  occ. eigenvalues --   -0.51365  -0.50923  -0.50613  -0.49938  -0.49926
 Alpha  occ. eigenvalues --   -0.49755  -0.49490  -0.48897  -0.47769  -0.47624
 Alpha  occ. eigenvalues --   -0.45998  -0.45363  -0.45236  -0.44736  -0.44638
 Alpha  occ. eigenvalues --   -0.44255  -0.44134  -0.43223  -0.42010  -0.40560
 Alpha  occ. eigenvalues --   -0.40369  -0.39866  -0.39743  -0.38948  -0.37798
 Alpha  occ. eigenvalues --   -0.36787  -0.33586
 Alpha virt. eigenvalues --   -0.13587  -0.13305  -0.12598  -0.10864  -0.08506
 Alpha virt. eigenvalues --   -0.07507  -0.05740  -0.03967  -0.02839  -0.02676
 Alpha virt. eigenvalues --   -0.02186  -0.00955  -0.00770  -0.00506  -0.00159

 Mulliken charges:
               1
     1  N   -0.771679
     2  C   -0.123568
     3  C    0.627325
     4  O   -0.497033
     5  C   -0.299790
     6  C   -0.360280
     7  C    0.602340
     8  O   -0.535472
     9  O   -0.558014
    10  H    0.473035
    11  H    0.410881
    12  H    0.192668
    13  H    0.199867
    14  H    0.214140
    15  H    0.188317
    16  H    0.217002
    17  H    0.431593
    18  H    0.449204
    19  N   -0.599651
    20  C   -0.054236
    21  C    0.619047
    22  O   -0.560980
    23  C   -0.304755
    24  C   -0.102807
    25  C   -0.462220
    26  C   -0.449153
    27  H    0.363988
    28  H    0.170409
    29  H    0.173009
    30  H    0.172923
    31  H    0.132879
    32  H    0.166095
    33  H    0.179125
    34  H    0.124365
    35  H    0.159838
    36  H    0.159933
    37  H    0.168201
    38  N   -0.617386
    39  C   -0.055332
    40  C    0.643625
    41  O   -0.449144
    42  C   -0.276557
    43  C   -0.268416
    44  C   -0.159619
    45  N   -0.640889
    46  C    0.554840
    47  N   -0.622319
    48  N   -0.828350
    49  O   -0.614903
    50  H    0.441182
    51  H    0.374229
    52  H    0.207163
    53  H    0.179881
    54  H    0.187866
    55  H    0.167616
    56  H    0.107107
    57  H    0.168240
    58  H    0.192252
    59  H    0.378000
    60  H    0.309218
    61  H    0.365675
    62  H    0.339476
 Sum of Mulliken charges =   1.00000

 Dipole moment (field-independent basis, Debye):
    X=             56.0731    Y=             81.0445    Z=             60.5336  Tot=            115.6578
 Quadrupole moment (field-independent basis, Debye-Ang):
   XX=            522.1477   YY=           1212.3536   ZZ=            597.8312
   XY=            949.6623   XZ=            722.7108   YZ=           1021.4833

 Normal termination of Gaussian 16 at Tue May 24 03:33:57 2022.
