 Gaussian 16, Revision C.01,
 Gaussian 16:  ES64L-G16RevC.01  3-Jul-2019

 ----------------------------------------------------------------------
 # B3LYP/6-31G* empiricaldispersion=gd3 guess=read geom=check nosymm in
 tegral(ultrafinegrid)
 ----------------------------------------------------------------------

 ------------------------------------------------------
 Candidate Structure: Conf:549 Charge calc in gas phase
 ------------------------------------------------------
 Structure from the checkpoint file:  "conf-549.chk"
 Charge =  1 Multiplicity = 1

                          Input orientation:
 ---------------------------------------------------------------------
 Center     Atomic      Atomic             Coordinates (Angstroms)
 Number     Number       Type             X           Y           Z
 ---------------------------------------------------------------------
      1          7           0        9.093670   16.168994   15.042641
      2          6           0       10.040902   15.890379   13.899909
      3          6           0        9.237592   16.174789   12.618290
      4          8           0        8.023465   15.996700   12.668735
      5          6           0       10.509578   14.425430   13.896224
      6          6           0       11.184451   13.916463   15.200827
      7          6           0       12.057724   15.012279   15.780650
      8          8           0       11.557169   15.966609   16.354819
      9          8           0       13.371972   15.001006   15.533939
     10          1           0       13.661015   14.167165   15.123878
     11          1           0        8.821527   17.160436   15.036789
     12          1           0       10.868613   16.580987   14.052831
     13          1           0       11.207362   14.336471   13.058803
     14          1           0        9.657888   13.778174   13.659559
     15          1           0       10.433067   13.668439   15.956552
     16          1           0       11.733285   12.995114   14.982924
     17          1           0        8.228575   15.626771   14.911145
     18          1           0        9.584141   15.979505   15.933777
     19          7           0        9.938559   16.506880   11.514479
     20          6           0       11.276289   17.129198   11.457872
     21          6           0       11.028466   18.645413   11.369168
     22          8           0       10.304603   19.089663   10.490032
     23          6           0       12.074740   16.607131   10.257312
     24          6           0       12.486580   15.127013   10.371958
     25          6           0       13.012850   14.618823    9.021928
     26          6           0       13.542992   14.904468   11.469459
     27          1           0        9.349557   16.736014   10.715062
     28          1           0       11.816544   16.886179   12.373928
     29          1           0       12.973085   17.229919   10.151001
     30          1           0       11.476537   16.775738    9.354002
     31          1           0       11.586128   14.546119   10.624135
     32          1           0       13.898624   15.185938    8.710680
     33          1           0       13.296496   13.562586    9.081133
     34          1           0       12.255722   14.721057    8.237198
     35          1           0       14.465244   15.449031   11.233822
     36          1           0       13.215874   15.242573   12.464123
     37          1           0       13.799751   13.841943   11.549114
     38          7           0       11.634918   19.395282   12.336196
     39          6           0       11.182156   20.763034   12.606208
     40          6           0       12.385226   21.640133   13.001089
     41          8           0       12.334166   22.484446   13.863967
     42          6           0       10.026763   20.824209   13.624640
     43          6           0       10.094132   19.844009   14.813692
     44          6           0       11.385358   19.856964   15.659600
     45          7           0       12.376694   18.858851   15.193708
     46          6           0       13.778617   19.171275   15.302321
     47          7           0       14.359234   20.301278   15.264945
     48          7           0       14.532577   18.012925   15.471047
     49          8           0       13.502940   21.428305   12.289929
     50          1           0       13.370590   20.660724   11.704139
     51          1           0       12.034179   18.925770   13.156750
     52          1           0       10.820385   21.157756   11.649434
     53          1           0        9.091904   20.639775   13.084023
     54          1           0        9.986235   21.848282   14.006556
     55          1           0        9.241433   20.074165   15.464114
     56          1           0        9.933059   18.818009   14.437623
     57          1           0       11.145614   19.661836   16.712279
     58          1           0       11.824610   20.853896   15.620262
     59          1           0       12.215551   17.982994   15.689809
     60          1           0       13.743818   21.109915   15.234918
     61          1           0       15.524887   18.193260   15.376020
     62          1           0       14.226609   17.177703   14.989099
 ---------------------------------------------------------------------

 SCF Done:  E(RB3LYP) =  -1447.43506849     A.U. after    3 cycles

 Alpha  occ. eigenvalues --  -19.37122 -19.31522 -19.28459 -19.27660 -19.24050
 Alpha  occ. eigenvalues --  -19.22769 -14.62660 -14.51358 -14.48163 -14.45861
 Alpha  occ. eigenvalues --  -14.42733 -14.36969 -10.49910 -10.45299 -10.43129
 Alpha  occ. eigenvalues --  -10.41263 -10.41229 -10.38416 -10.38107 -10.37595
 Alpha  occ. eigenvalues --  -10.36971 -10.34517 -10.32655 -10.31424 -10.31145
 Alpha  occ. eigenvalues --  -10.31079 -10.30131 -10.29666 -10.27633  -1.27830
 Alpha  occ. eigenvalues --   -1.20605  -1.19467  -1.19434  -1.16581  -1.16072
 Alpha  occ. eigenvalues --   -1.11153  -1.07875  -1.06584  -1.04693  -0.98652
 Alpha  occ. eigenvalues --   -0.98163  -0.93786  -0.92879  -0.91292  -0.90677
 Alpha  occ. eigenvalues --   -0.87945  -0.84482  -0.82167  -0.80157  -0.79331
 Alpha  occ. eigenvalues --   -0.78375  -0.77508  -0.76929  -0.75554  -0.74202
 Alpha  occ. eigenvalues --   -0.72023  -0.71102  -0.69570  -0.69197  -0.68928
 Alpha  occ. eigenvalues --   -0.67650  -0.66521  -0.66100  -0.65161  -0.64168
 Alpha  occ. eigenvalues --   -0.63671  -0.62621  -0.61874  -0.61162  -0.60814
 Alpha  occ. eigenvalues --   -0.60513  -0.59256  -0.58294  -0.57930  -0.57624
 Alpha  occ. eigenvalues --   -0.57255  -0.56097  -0.55707  -0.55089  -0.54725
 Alpha  occ. eigenvalues --   -0.54343  -0.54242  -0.53972  -0.53141  -0.52241
 Alpha  occ. eigenvalues --   -0.52229  -0.51990  -0.51685  -0.51154  -0.50443
 Alpha  occ. eigenvalues --   -0.50243  -0.49419  -0.49026  -0.48879  -0.47982
 Alpha  occ. eigenvalues --   -0.46761  -0.46407  -0.45313  -0.44969  -0.44649
 Alpha  occ. eigenvalues --   -0.44520  -0.44345  -0.44093  -0.41978  -0.41088
 Alpha  occ. eigenvalues --   -0.40604  -0.39147  -0.37435  -0.36230  -0.35812
 Alpha  occ. eigenvalues --   -0.34029  -0.31953
 Alpha virt. eigenvalues --   -0.17391  -0.15045  -0.12666  -0.11026  -0.10093
 Alpha virt. eigenvalues --   -0.08977  -0.08198  -0.06365  -0.05705  -0.04748
 Alpha virt. eigenvalues --   -0.04104  -0.03257  -0.03058  -0.02506  -0.01290

 Mulliken charges:
               1
     1  N   -0.736428
     2  C   -0.144137
     3  C    0.625628
     4  O   -0.499412
     5  C   -0.309731
     6  C   -0.397635
     7  C    0.627309
     8  O   -0.471617
     9  O   -0.525836
    10  H    0.445288
    11  H    0.425275
    12  H    0.214501
    13  H    0.219455
    14  H    0.214743
    15  H    0.208401
    16  H    0.201076
    17  H    0.422110
    18  H    0.427357
    19  N   -0.573369
    20  C   -0.112744
    21  C    0.633424
    22  O   -0.499268
    23  C   -0.261352
    24  C   -0.087885
    25  C   -0.449245
    26  C   -0.461260
    27  H    0.376894
    28  H    0.137613
    29  H    0.162292
    30  H    0.179573
    31  H    0.131697
    32  H    0.161630
    33  H    0.160616
    34  H    0.164439
    35  H    0.174128
    36  H    0.091488
    37  H    0.161152
    38  N   -0.673496
    39  C   -0.099801
    40  C    0.627903
    41  O   -0.456067
    42  C   -0.277545
    43  C   -0.290645
    44  C   -0.164890
    45  N   -0.699697
    46  C    0.558137
    47  N   -0.612178
    48  N   -0.746847
    49  O   -0.541661
    50  H    0.424603
    51  H    0.383082
    52  H    0.228932
    53  H    0.163328
    54  H    0.204557
    55  H    0.167271
    56  H    0.068996
    57  H    0.165345
    58  H    0.207966
    59  H    0.350276
    60  H    0.315453
    61  H    0.350635
    62  H    0.310174
 Sum of Mulliken charges =   1.00000

 Dipole moment (field-independent basis, Debye):
    X=             50.5654    Y=             70.3067    Z=             67.1913  Tot=            109.6110
 Quadrupole moment (field-independent basis, Debye-Ang):
   XX=            365.0682   YY=            842.7427   ZZ=            782.8646
   XY=            709.7253   XZ=            683.6907   YZ=            978.1065

 Normal termination of Gaussian 16 at Tue May 24 03:34:35 2022.
