 Gaussian 16, Revision C.01,
 Gaussian 16:  ES64L-G16RevC.01  3-Jul-2019

 ----------------------------------------------------------------------
 # B3LYP/6-31G* empiricaldispersion=gd3 guess=read geom=check nosymm in
 tegral(ultrafinegrid)
 ----------------------------------------------------------------------

 ------------------------------------------------------
 Candidate Structure: Conf:234 Charge calc in gas phase
 ------------------------------------------------------
 Structure from the checkpoint file:  "conf-234.chk"
 Charge =  1 Multiplicity = 1

                          Input orientation:
 ---------------------------------------------------------------------
 Center     Atomic      Atomic             Coordinates (Angstroms)
 Number     Number       Type             X           Y           Z
 ---------------------------------------------------------------------
      1          7           0       14.433104   18.658729   13.210641
      2          6           0       14.045010   17.229129   13.475982
      3          6           0       14.215020   17.089083   14.994958
      4          8           0       15.290674   17.416836   15.483982
      5          6           0       14.954939   16.246365   12.722806
      6          6           0       14.564924   16.020530   11.256172
      7          6           0       14.799081   17.198476   10.339796
      8          8           0       15.302084   18.266586   10.645148
      9          8           0       14.413381   16.927792    9.080419
     10          1           0       14.602254   17.719618    8.539227
     11          1           0       14.612599   18.803455   12.198024
     12          1           0       13.022101   17.142502   13.120544
     13          1           0       14.881109   15.281483   13.236338
     14          1           0       15.999819   16.561120   12.814458
     15          1           0       15.137306   15.179612   10.845215
     16          1           0       13.508769   15.742235   11.172917
     17          1           0       13.671662   19.248760   13.574018
     18          1           0       15.289731   18.854061   13.746777
     19          7           0       13.187304   16.568591   15.715688
     20          6           0       11.777017   16.586000   15.341036
     21          6           0       11.290928   18.058647   15.192801
     22          8           0       12.055363   18.932584   14.756851
     23          6           0       10.968607   15.699270   16.303723
     24          6           0       11.493224   14.254429   16.446792
     25          6           0       10.585670   13.476890   17.410868
     26          6           0       11.598145   13.540266   15.092102
     27          1           0       13.384109   16.549607   16.712265
     28          1           0       11.680026   16.158319   14.336740
     29          1           0        9.934666   15.640677   15.938664
     30          1           0       10.929494   16.177996   17.291810
     31          1           0       12.499016   14.295165   16.886482
     32          1           0       10.514026   13.973519   18.385344
     33          1           0        9.570464   13.383597   17.005135
     34          1           0       10.972242   12.466182   17.577215
     35          1           0       12.340268   14.009139   14.434495
     36          1           0       11.902304   12.497853   15.230867
     37          1           0       10.631320   13.536736   14.571999
     38          7           0       10.004724   18.292506   15.491772
     39          6           0        9.302114   19.553330   15.291118
     40          6           0        7.833195   19.266432   15.651321
     41          8           0        7.420019   18.147522   15.844312
     42          6           0        9.428515   20.113391   13.852060
     43          6           0        9.150228   19.080904   12.755303
     44          6           0        9.458424   19.643123   11.350225
     45          7           0        9.850989   18.638907   10.373094
     46          6           0       11.079650   18.008859   10.433267
     47          7           0       12.045652   18.269305   11.263515
     48          7           0       11.232494   17.004918    9.491327
     49          8           0        7.013944   20.328443   15.708557
     50          1           0        7.496804   21.164515   15.593496
     51          1           0        9.399893   17.541089   15.808891
     52          1           0        9.696975   20.303612   15.990505
     53          1           0       10.446517   20.496162   13.742795
     54          1           0        8.754418   20.973601   13.748570
     55          1           0        9.786852   18.206012   12.919579
     56          1           0        8.114482   18.723627   12.805723
     57          1           0       10.270671   20.378662   11.408393
     58          1           0        8.595499   20.179978   10.945629
     59          1           0        9.101360   18.107888    9.948207
     60          1           0       11.743251   18.945392   11.962674
     61          1           0       12.196568   16.729509    9.345290
     62          1           0       10.741028   17.144789    8.616442
 ---------------------------------------------------------------------

 SCF Done:  E(RB3LYP) =  -1447.49064860     A.U. after    3 cycles

 Alpha  occ. eigenvalues --  -19.32288 -19.31107 -19.26962 -19.25349 -19.25295
 Alpha  occ. eigenvalues --  -19.24012 -14.55536 -14.48986 -14.48482 -14.46121
 Alpha  occ. eigenvalues --  -14.44583 -14.39837 -10.45158 -10.43718 -10.42136
 Alpha  occ. eigenvalues --  -10.41435 -10.39533 -10.37177 -10.36714 -10.36444
 Alpha  occ. eigenvalues --  -10.33330 -10.32533 -10.32392 -10.31412 -10.30581
 Alpha  occ. eigenvalues --  -10.29979 -10.29230 -10.27050 -10.26081  -1.23347
 Alpha  occ. eigenvalues --   -1.21859  -1.17148  -1.16118  -1.14380  -1.13778
 Alpha  occ. eigenvalues --   -1.10540  -1.08641  -1.05640  -1.05175  -0.99547
 Alpha  occ. eigenvalues --   -0.94997  -0.93270  -0.92658  -0.91253  -0.87105
 Alpha  occ. eigenvalues --   -0.86215  -0.84519  -0.79140  -0.78840  -0.77933
 Alpha  occ. eigenvalues --   -0.76413  -0.73898  -0.73466  -0.72248  -0.71543
 Alpha  occ. eigenvalues --   -0.69994  -0.69716  -0.69035  -0.68604  -0.67930
 Alpha  occ. eigenvalues --   -0.66162  -0.66033  -0.63122  -0.62854  -0.62166
 Alpha  occ. eigenvalues --   -0.61705  -0.61211  -0.60753  -0.59918  -0.59133
 Alpha  occ. eigenvalues --   -0.58537  -0.58279  -0.57550  -0.56802  -0.56090
 Alpha  occ. eigenvalues --   -0.55637  -0.54711  -0.54433  -0.53836  -0.53551
 Alpha  occ. eigenvalues --   -0.53239  -0.53122  -0.52695  -0.52267  -0.51255
 Alpha  occ. eigenvalues --   -0.50611  -0.50387  -0.49536  -0.49349  -0.49073
 Alpha  occ. eigenvalues --   -0.48845  -0.48707  -0.47905  -0.47212  -0.47011
 Alpha  occ. eigenvalues --   -0.46665  -0.46344  -0.45644  -0.44682  -0.43528
 Alpha  occ. eigenvalues --   -0.42931  -0.42651  -0.42428  -0.40718  -0.39909
 Alpha  occ. eigenvalues --   -0.39144  -0.38963  -0.38614  -0.37853  -0.36940
 Alpha  occ. eigenvalues --   -0.35977  -0.33701
 Alpha virt. eigenvalues --   -0.12349  -0.11826  -0.10717  -0.09747  -0.06292
 Alpha virt. eigenvalues --   -0.05675  -0.05087  -0.04135  -0.03685  -0.02865
 Alpha virt. eigenvalues --   -0.02430  -0.01843  -0.01235   0.00171   0.00565

 Mulliken charges:
               1
     1  N   -0.763507
     2  C   -0.089640
     3  C    0.620329
     4  O   -0.507242
     5  C   -0.298609
     6  C   -0.367974
     7  C    0.647313
     8  O   -0.501583
     9  O   -0.558622
    10  H    0.434864
    11  H    0.447793
    12  H    0.211316
    13  H    0.192915
    14  H    0.194839
    15  H    0.213275
    16  H    0.204674
    17  H    0.426183
    18  H    0.404797
    19  N   -0.582029
    20  C   -0.092241
    21  C    0.662159
    22  O   -0.578589
    23  C   -0.325430
    24  C   -0.072986
    25  C   -0.449266
    26  C   -0.455306
    27  H    0.354892
    28  H    0.194975
    29  H    0.163618
    30  H    0.162264
    31  H    0.140527
    32  H    0.154446
    33  H    0.154396
    34  H    0.166081
    35  H    0.130029
    36  H    0.171747
    37  H    0.150741
    38  N   -0.635121
    39  C   -0.056652
    40  C    0.616968
    41  O   -0.440336
    42  C   -0.296592
    43  C   -0.282442
    44  C   -0.167382
    45  N   -0.589892
    46  C    0.633552
    47  N   -0.747333
    48  N   -0.773240
    49  O   -0.546026
    50  H    0.428501
    51  H    0.384391
    52  H    0.193429
    53  H    0.181037
    54  H    0.149284
    55  H    0.153906
    56  H    0.170590
    57  H    0.166272
    58  H    0.178964
    59  H    0.337942
    60  H    0.285605
    61  H    0.357587
    62  H    0.335836
 Sum of Mulliken charges =   1.00000

 Dipole moment (field-independent basis, Debye):
    X=             57.0093    Y=             86.4551    Z=             60.9034  Tot=            120.1407
 Quadrupole moment (field-independent basis, Debye-Ang):
   XX=            519.4109   YY=           1417.3153   ZZ=            644.3800
   XY=           1008.8779   XZ=            716.9258   YZ=           1096.5178

 Normal termination of Gaussian 16 at Tue May 24 03:34:26 2022.
