 Gaussian 16, Revision C.01,
 Gaussian 16:  ES64L-G16RevC.01  3-Jul-2019

 ----------------------------------------------------------------------
 # B3LYP/6-31G* empiricaldispersion=gd3 guess=read geom=check nosymm in
 tegral(ultrafinegrid)
 ----------------------------------------------------------------------

 ------------------------------------------------------
 Candidate Structure: Conf:156 Charge calc in gas phase
 ------------------------------------------------------
 Structure from the checkpoint file:  "conf-156.chk"
 Charge =  1 Multiplicity = 1

                          Input orientation:
 ---------------------------------------------------------------------
 Center     Atomic      Atomic             Coordinates (Angstroms)
 Number     Number       Type             X           Y           Z
 ---------------------------------------------------------------------
      1          7           0       11.033874   17.537372   10.505017
      2          6           0       10.930500   16.175981   11.155671
      3          6           0       12.363969   15.608944   11.090049
      4          8           0       12.814052   15.317221    9.989650
      5          6           0        9.972014   15.223236   10.422143
      6          6           0        8.631230   15.830323    9.937549
      7          6           0        8.002542   16.760777   10.960475
      8          8           0        8.255055   17.947029   10.997927
      9          8           0        7.208292   16.225842   11.911705
     10          1           0        7.032088   15.283769   11.747622
     11          1           0       10.120132   18.026547   10.580477
     12          1           0       10.571971   16.417353   12.156868
     13          1           0        9.780218   14.396351   11.115904
     14          1           0       10.486249   14.797693    9.555859
     15          1           0        8.791197   16.429423    9.036667
     16          1           0        7.955680   15.014222    9.658340
     17          1           0       11.753331   18.057609   11.048803
     18          1           0       11.345347   17.453742    9.531555
     19          7           0       13.057402   15.433648   12.248395
     20          6           0       12.872483   16.146002   13.507981
     21          6           0       13.358917   17.610938   13.347253
     22          8           0       13.091716   18.238746   12.312765
     23          6           0       13.471921   15.337236   14.668722
     24          6           0       12.938151   13.893562   14.783935
     25          6           0       13.591605   13.199224   15.987140
     26          6           0       11.407115   13.850919   14.888095
     27          1           0       13.997207   15.085985   12.074719
     28          1           0       11.800606   16.268589   13.692172
     29          1           0       13.240677   15.857810   15.608352
     30          1           0       14.567464   15.309088   14.574150
     31          1           0       13.232448   13.352626   13.874720
     32          1           0       13.307631   13.690233   16.926540
     33          1           0       13.275393   12.153021   16.050315
     34          1           0       14.685256   13.214532   15.916071
     35          1           0       10.920082   14.224137   13.978698
     36          1           0       11.062829   12.823220   15.042421
     37          1           0       11.050496   14.451482   15.734850
     38          7           0       13.977738   18.173188   14.405727
     39          6           0       14.414199   19.582228   14.485719
     40          6           0       15.024238   19.838770   15.871321
     41          8           0       16.013054   20.497955   16.030835
     42          6           0       13.267567   20.586989   14.209436
     43          6           0       11.999422   20.372646   15.055830
     44          6           0       10.733090   20.981042   14.394599
     45          7           0        9.513467   20.211386   14.590106
     46          6           0        9.344122   18.966596   14.018265
     47          7           0       10.201018   18.362943   13.248670
     48          7           0        8.150621   18.351286   14.345515
     49          8           0       14.362631   19.290021   16.929929
     50          1           0       13.494702   18.945021   16.659812
     51          1           0       14.326655   17.548046   15.120159
     52          1           0       15.214536   19.758311   13.762278
     53          1           0       13.022277   20.502354   13.147943
     54          1           0       13.678704   21.591017   14.361795
     55          1           0       11.818881   19.296859   15.170401
     56          1           0       12.129598   20.782819   16.063880
     57          1           0       10.891712   21.076303   13.312888
     58          1           0       10.547235   21.992691   14.763892
     59          1           0        8.965012   20.409566   15.416337
     60          1           0       11.061949   18.896288   13.184272
     61          1           0        7.936110   17.564991   13.743255
     62          1           0        7.356001   18.973479   14.438954
 ---------------------------------------------------------------------

 SCF Done:  E(RB3LYP) =  -1447.46201752     A.U. after    3 cycles

 Alpha  occ. eigenvalues --  -19.33434 -19.30014 -19.27406 -19.26523 -19.24774
 Alpha  occ. eigenvalues --  -19.23757 -14.56830 -14.50584 -14.49348 -14.45869
 Alpha  occ. eigenvalues --  -14.44016 -14.39303 -10.45781 -10.43230 -10.42369
 Alpha  occ. eigenvalues --  -10.42292 -10.39118 -10.38264 -10.36887 -10.35992
 Alpha  occ. eigenvalues --  -10.34423 -10.34175 -10.33214 -10.31517 -10.30550
 Alpha  occ. eigenvalues --  -10.30139 -10.30006 -10.27936 -10.26852  -1.23848
 Alpha  occ. eigenvalues --   -1.20358  -1.18166  -1.16983  -1.15606  -1.12335
 Alpha  occ. eigenvalues --   -1.11663  -1.08314  -1.06563  -1.05877  -0.99158
 Alpha  occ. eigenvalues --   -0.94628  -0.94385  -0.93113  -0.91379  -0.87539
 Alpha  occ. eigenvalues --   -0.86902  -0.84720  -0.79143  -0.78599  -0.78471
 Alpha  occ. eigenvalues --   -0.77115  -0.75274  -0.73691  -0.73016  -0.72284
 Alpha  occ. eigenvalues --   -0.71339  -0.70399  -0.69422  -0.68703  -0.68349
 Alpha  occ. eigenvalues --   -0.66721  -0.65764  -0.65385  -0.63304  -0.62320
 Alpha  occ. eigenvalues --   -0.61930  -0.61201  -0.60866  -0.60343  -0.59787
 Alpha  occ. eigenvalues --   -0.58784  -0.57947  -0.57700  -0.57413  -0.56304
 Alpha  occ. eigenvalues --   -0.55804  -0.55372  -0.54544  -0.54134  -0.53768
 Alpha  occ. eigenvalues --   -0.53416  -0.52994  -0.52799  -0.52536  -0.51930
 Alpha  occ. eigenvalues --   -0.51404  -0.51001  -0.50496  -0.50319  -0.49775
 Alpha  occ. eigenvalues --   -0.49232  -0.48486  -0.48144  -0.47721  -0.47232
 Alpha  occ. eigenvalues --   -0.46732  -0.45926  -0.45252  -0.45116  -0.44364
 Alpha  occ. eigenvalues --   -0.43465  -0.43262  -0.41857  -0.41218  -0.40794
 Alpha  occ. eigenvalues --   -0.40079  -0.39054  -0.38339  -0.37631  -0.36900
 Alpha  occ. eigenvalues --   -0.35600  -0.33410
 Alpha virt. eigenvalues --   -0.13782  -0.13141  -0.11503  -0.09686  -0.08299
 Alpha virt. eigenvalues --   -0.06473  -0.05941  -0.04837  -0.03475  -0.03069
 Alpha virt. eigenvalues --   -0.02428  -0.01266  -0.00589  -0.00159   0.00154

 Mulliken charges:
               1
     1  N   -0.777897
     2  C   -0.110081
     3  C    0.596666
     4  O   -0.490382
     5  C   -0.299019
     6  C   -0.408464
     7  C    0.622223
     8  O   -0.446647
     9  O   -0.554701
    10  H    0.434272
    11  H    0.439852
    12  H    0.240543
    13  H    0.183109
    14  H    0.218967
    15  H    0.197957
    16  H    0.192470
    17  H    0.445521
    18  H    0.399926
    19  N   -0.573216
    20  C   -0.099941
    21  C    0.672994
    22  O   -0.568776
    23  C   -0.323264
    24  C   -0.070353
    25  C   -0.449742
    26  C   -0.455799
    27  H    0.353897
    28  H    0.220111
    29  H    0.148124
    30  H    0.157694
    31  H    0.145487
    32  H    0.151837
    33  H    0.167810
    34  H    0.155964
    35  H    0.125002
    36  H    0.170807
    37  H    0.153839
    38  N   -0.652614
    39  C   -0.038171
    40  C    0.579431
    41  O   -0.405569
    42  C   -0.298054
    43  C   -0.323405
    44  C   -0.162821
    45  N   -0.594268
    46  C    0.649936
    47  N   -0.768487
    48  N   -0.760960
    49  O   -0.564955
    50  H    0.418307
    51  H    0.364964
    52  H    0.213208
    53  H    0.182297
    54  H    0.193525
    55  H    0.143335
    56  H    0.173618
    57  H    0.168820
    58  H    0.182932
    59  H    0.339273
    60  H    0.300886
    61  H    0.355172
    62  H    0.336811
 Sum of Mulliken charges =   1.00000

 Dipole moment (field-independent basis, Debye):
    X=             49.0788    Y=             80.2642    Z=             60.3482  Tot=            111.7720
 Quadrupole moment (field-independent basis, Debye-Ang):
   XX=            343.6186   YY=           1198.8109   ZZ=            606.1191
   XY=            813.5278   XZ=            620.5507   YZ=           1009.8223

 Normal termination of Gaussian 16 at Tue May 24 03:34:32 2022.
