 Gaussian 16, Revision C.01,
 Gaussian 16:  ES64L-G16RevC.01  3-Jul-2019

 ----------------------------------------------------------------------
 # B3LYP/6-31G* empiricaldispersion=gd3 guess=read geom=check nosymm in
 tegral(ultrafinegrid)
 ----------------------------------------------------------------------

 ------------------------------------------------------
 Candidate Structure: Conf:496 Charge calc in gas phase
 ------------------------------------------------------
 Structure from the checkpoint file:  "conf-496.chk"
 Charge =  1 Multiplicity = 1

                          Input orientation:
 ---------------------------------------------------------------------
 Center     Atomic      Atomic             Coordinates (Angstroms)
 Number     Number       Type             X           Y           Z
 ---------------------------------------------------------------------
      1          7           0       15.147897   15.428142   13.141041
      2          6           0       14.424394   16.692624   13.521512
      3          6           0       15.208115   17.834932   12.837787
      4          8           0       16.341496   17.599530   12.428163
      5          6           0       14.384673   16.819269   15.066302
      6          6           0       13.067512   16.337939   15.683521
      7          6           0       12.728356   14.889253   15.348679
      8          8           0       13.547017   14.120803   14.856089
      9          8           0       11.498774   14.482899   15.606766
     10          1           0       10.850143   15.229441   15.850996
     11          1           0       14.958949   15.158991   12.170417
     12          1           0       13.417598   16.609709   13.102115
     13          1           0       14.543874   17.864815   15.343661
     14          1           0       15.227853   16.265485   15.493935
     15          1           0       13.106594   16.430772   16.776304
     16          1           0       12.239446   16.979941   15.361741
     17          1           0       16.160613   15.623560   13.188470
     18          1           0       14.819003   14.673543   13.789183
     19          7           0       14.588614   19.030301   12.773404
     20          6           0       13.204015   19.323331   13.158040
     21          6           0       12.260438   19.124346   11.958377
     22          8           0       12.423732   19.759212   10.928667
     23          6           0       13.086543   20.768745   13.667041
     24          6           0       11.685664   21.141038   14.193691
     25          6           0       11.252760   20.260969   15.377099
     26          6           0       11.664133   22.624347   14.589348
     27          1           0       15.084091   19.744281   12.248026
     28          1           0       12.933185   18.650675   13.972096
     29          1           0       13.350434   21.434711   12.836530
     30          1           0       13.831562   20.914792   14.460509
     31          1           0       10.959452   20.994412   13.382818
     32          1           0       11.982149   20.309978   16.195919
     33          1           0       10.285582   20.591292   15.769311
     34          1           0       11.134241   19.209253   15.083376
     35          1           0       10.665672   22.925248   14.923402
     36          1           0       12.365959   22.822881   15.409070
     37          1           0       11.942666   23.263817   13.744786
     38          7           0       11.255294   18.217909   12.148273
     39          6           0       10.094678   18.169726   11.266259
     40          6           0        8.793277   18.333110   12.055010
     41          8           0        7.712809   17.970370   11.651812
     42          6           0       10.055054   16.935065   10.344770
     43          6           0       10.222560   15.556814   11.007028
     44          6           0        9.229702   15.215933   12.130388
     45          7           0        9.693197   15.772792   13.414748
     46          6           0        8.827073   16.153324   14.433939
     47          7           0        7.575104   16.369514   14.437703
     48          7           0        9.572863   16.409767   15.658100
     49          8           0        8.962838   18.936041   13.257871
     50          1           0        8.085095   18.923611   13.690973
     51          1           0       11.116626   17.803842   13.059936
     52          1           0       10.170497   19.055557   10.622484
     53          1           0       10.850775   17.061987    9.602874
     54          1           0        9.103335   16.967757    9.805293
     55          1           0       10.123151   14.801643   10.219049
     56          1           0       11.245902   15.450677   11.397674
     57          1           0        9.119310   14.128394   12.225461
     58          1           0        8.247119   15.625461   11.893842
     59          1           0       10.481153   15.244564   13.773827
     60          1           0        7.118867   16.124829   13.558825
     61          1           0        8.889025   16.420336   16.416442
     62          1           0        9.952111   17.358374   15.610630
 ---------------------------------------------------------------------

 SCF Done:  E(RB3LYP) =  -1447.47171549     A.U. after    1 cycles

 Alpha  occ. eigenvalues --  -19.31792 -19.31174 -19.28328 -19.26749 -19.25151
 Alpha  occ. eigenvalues --  -19.23547 -14.59900 -14.50594 -14.48595 -14.48444
 Alpha  occ. eigenvalues --  -14.47887 -14.41508 -10.46742 -10.44319 -10.43416
 Alpha  occ. eigenvalues --  -10.41869 -10.40823 -10.40703 -10.37048 -10.36400
 Alpha  occ. eigenvalues --  -10.35837 -10.35216 -10.33299 -10.30524 -10.30243
 Alpha  occ. eigenvalues --  -10.29993 -10.29599 -10.29107 -10.26746  -1.23677
 Alpha  occ. eigenvalues --   -1.21923  -1.19358  -1.15808  -1.15662  -1.14108
 Alpha  occ. eigenvalues --   -1.12900  -1.10026  -1.07245  -1.04983  -1.01569
 Alpha  occ. eigenvalues --   -0.97064  -0.96676  -0.93197  -0.90896  -0.89007
 Alpha  occ. eigenvalues --   -0.87330  -0.85238  -0.80755  -0.79722  -0.79162
 Alpha  occ. eigenvalues --   -0.76745  -0.75889  -0.74960  -0.73961  -0.73315
 Alpha  occ. eigenvalues --   -0.72893  -0.71495  -0.70265  -0.69341  -0.67316
 Alpha  occ. eigenvalues --   -0.66382  -0.66079  -0.65834  -0.65336  -0.63518
 Alpha  occ. eigenvalues --   -0.62856  -0.61872  -0.61859  -0.61315  -0.60340
 Alpha  occ. eigenvalues --   -0.59714  -0.59148  -0.59011  -0.58300  -0.57570
 Alpha  occ. eigenvalues --   -0.56628  -0.56459  -0.55430  -0.55073  -0.54846
 Alpha  occ. eigenvalues --   -0.54346  -0.54011  -0.53289  -0.53105  -0.52834
 Alpha  occ. eigenvalues --   -0.51651  -0.51384  -0.51041  -0.50567  -0.50388
 Alpha  occ. eigenvalues --   -0.50004  -0.49367  -0.48255  -0.48132  -0.47209
 Alpha  occ. eigenvalues --   -0.46237  -0.45446  -0.45278  -0.45152  -0.44273
 Alpha  occ. eigenvalues --   -0.43697  -0.43308  -0.42786  -0.42446  -0.41684
 Alpha  occ. eigenvalues --   -0.41069  -0.40284  -0.39773  -0.38477  -0.37059
 Alpha  occ. eigenvalues --   -0.36868  -0.35868
 Alpha virt. eigenvalues --   -0.14087  -0.13309  -0.11065  -0.11006  -0.10400
 Alpha virt. eigenvalues --   -0.09878  -0.08374  -0.06073  -0.05410  -0.03851
 Alpha virt. eigenvalues --   -0.03234  -0.03073  -0.02039  -0.01794  -0.00094

 Mulliken charges:
               1
     1  N   -0.746920
     2  C   -0.130773
     3  C    0.628994
     4  O   -0.498612
     5  C   -0.299936
     6  C   -0.411927
     7  C    0.627333
     8  O   -0.496086
     9  O   -0.572305
    10  H    0.472932
    11  H    0.413448
    12  H    0.200769
    13  H    0.211115
    14  H    0.199478
    15  H    0.227846
    16  H    0.163109
    17  H    0.419618
    18  H    0.449307
    19  N   -0.585224
    20  C   -0.088047
    21  C    0.640866
    22  O   -0.498187
    23  C   -0.280328
    24  C   -0.092838
    25  C   -0.456762
    26  C   -0.449508
    27  H    0.372867
    28  H    0.129946
    29  H    0.181550
    30  H    0.154448
    31  H    0.159536
    32  H    0.150797
    33  H    0.171499
    34  H    0.099967
    35  H    0.162418
    36  H    0.152413
    37  H    0.165472
    38  N   -0.616654
    39  C   -0.060909
    40  C    0.611904
    41  O   -0.456018
    42  C   -0.275147
    43  C   -0.269365
    44  C   -0.174038
    45  N   -0.632619
    46  C    0.550164
    47  N   -0.599767
    48  N   -0.842048
    49  O   -0.587932
    50  H    0.433944
    51  H    0.332559
    52  H    0.232416
    53  H    0.168235
    54  H    0.190630
    55  H    0.174616
    56  H    0.109468
    57  H    0.177650
    58  H    0.199243
    59  H    0.337538
    60  H    0.319195
    61  H    0.370633
    62  H    0.358024
 Sum of Mulliken charges =   1.00000

 Dipole moment (field-independent basis, Debye):
    X=             61.6531    Y=             81.4257    Z=             67.8228  Tot=            122.6018
 Quadrupole moment (field-independent basis, Debye-Ang):
   XX=            636.4453   YY=           1226.0792   ZZ=            798.7463
   XY=           1037.2883   XZ=            870.6693   YZ=           1166.9690

 Normal termination of Gaussian 16 at Tue May 24 03:34:12 2022.
