 Gaussian 16, Revision C.01,
 Gaussian 16:  ES64L-G16RevC.01  3-Jul-2019

 ----------------------------------------------------------------------
 # B3LYP/6-31G* empiricaldispersion=gd3 guess=read geom=check nosymm in
 tegral(ultrafinegrid)
 ----------------------------------------------------------------------

 ------------------------------------------------------
 Candidate Structure: Conf:474 Charge calc in gas phase
 ------------------------------------------------------
 Structure from the checkpoint file:  "conf-474.chk"
 Charge =  1 Multiplicity = 1

                          Input orientation:
 ---------------------------------------------------------------------
 Center     Atomic      Atomic             Coordinates (Angstroms)
 Number     Number       Type             X           Y           Z
 ---------------------------------------------------------------------
      1          7           0       13.128631   15.007013   11.343448
      2          6           0       12.289072   14.943805   12.594990
      3          6           0       13.297582   14.599545   13.708840
      4          8           0       13.964284   13.584212   13.558248
      5          6           0       11.200725   13.866090   12.521185
      6          6           0       10.209142   13.972923   11.327534
      7          6           0       10.048802   15.393203   10.799479
      8          8           0       10.904723   15.892899   10.077508
      9          8           0        8.984633   16.102939   11.153028
     10          1           0        8.607867   15.833350   12.047818
     11          1           0       13.790945   15.793983   11.473804
     12          1           0       11.836782   15.931209   12.691860
     13          1           0       10.651659   13.928041   13.467212
     14          1           0       11.677483   12.881460   12.517204
     15          1           0       10.583073   13.385992   10.483372
     16          1           0        9.245899   13.544186   11.615741
     17          1           0       13.663663   14.134618   11.250012
     18          1           0       12.511053   15.197770   10.523645
     19          7           0       13.364922   15.404320   14.799169
     20          6           0       12.932881   16.797501   14.884100
     21          6           0       13.406247   17.593070   13.640044
     22          8           0       14.186463   17.118965   12.808308
     23          6           0       13.459404   17.372840   16.223930
     24          6           0       12.907332   18.731827   16.701648
     25          6           0       11.375669   18.736981   16.824741
     26          6           0       13.554824   19.084072   18.050639
     27          1           0       14.098880   15.119270   15.441010
     28          1           0       11.836174   16.836934   14.890411
     29          1           0       14.554911   17.421709   16.164039
     30          1           0       13.215403   16.627597   16.992892
     31          1           0       13.206520   19.512935   15.989853
     32          1           0       11.038872   17.961380   17.523266
     33          1           0       11.024858   19.700368   17.208190
     34          1           0       10.853056   18.557316   15.876593
     35          1           0       13.222615   20.069500   18.391851
     36          1           0       13.278404   18.352538   18.819550
     37          1           0       14.648025   19.103634   17.979317
     38          7           0       12.869857   18.829415   13.523020
     39          6           0       12.992163   19.638853   12.303116
     40          6           0       13.224673   21.117690   12.668397
     41          8           0       12.824263   22.025527   11.988466
     42          6           0       11.828450   19.438805   11.315483
     43          6           0       10.463166   20.047173   11.685746
     44          6           0        9.817402   19.619416   13.009009
     45          7           0        9.728624   18.156756   13.121899
     46          6           0        8.831586   17.603880   14.034636
     47          7           0        8.182849   18.149163   14.983387
     48          7           0        8.681003   16.176296   13.839963
     49          8           0       13.937661   21.336597   13.796101
     50          1           0       14.213584   20.486225   14.181192
     51          1           0       12.103781   19.053809   14.143581
     52          1           0       13.912685   19.291368   11.820287
     53          1           0       11.737575   18.362484   11.122653
     54          1           0       12.136085   19.895188   10.369422
     55          1           0       10.553237   21.136442   11.697271
     56          1           0        9.768331   19.800839   10.872706
     57          1           0        8.817122   20.072870   13.061864
     58          1           0       10.371187   20.017641   13.871128
     59          1           0        9.662524   17.711771   12.209731
     60          1           0        8.274134   19.165312   14.998154
     61          1           0        7.918099   15.879277   14.449180
     62          1           0        9.522746   15.698706   14.164685
 ---------------------------------------------------------------------

 SCF Done:  E(RB3LYP) =  -1447.46360988     A.U. after    1 cycles

 Alpha  occ. eigenvalues --  -19.32408 -19.30072 -19.28560 -19.27658 -19.26478
 Alpha  occ. eigenvalues --  -19.24115 -14.58898 -14.51277 -14.50728 -14.48760
 Alpha  occ. eigenvalues --  -14.47661 -14.41928 -10.46867 -10.44387 -10.44123
 Alpha  occ. eigenvalues --  -10.42703 -10.41244 -10.40840 -10.38694 -10.36600
 Alpha  occ. eigenvalues --  -10.36225 -10.35193 -10.34333 -10.32637 -10.31571
 Alpha  occ. eigenvalues --  -10.30849 -10.30011 -10.29083 -10.27835  -1.24120
 Alpha  occ. eigenvalues --   -1.20797  -1.19719  -1.18590  -1.15942  -1.13590
 Alpha  occ. eigenvalues --   -1.12640  -1.10296  -1.07707  -1.07457  -1.01937
 Alpha  occ. eigenvalues --   -0.97328  -0.96165  -0.94317  -0.91713  -0.88929
 Alpha  occ. eigenvalues --   -0.88059  -0.85925  -0.80682  -0.79986  -0.79717
 Alpha  occ. eigenvalues --   -0.77909  -0.75689  -0.74836  -0.74205  -0.73046
 Alpha  occ. eigenvalues --   -0.72941  -0.71649  -0.71456  -0.70034  -0.69039
 Alpha  occ. eigenvalues --   -0.67552  -0.67357  -0.66214  -0.64444  -0.64305
 Alpha  occ. eigenvalues --   -0.63331  -0.62406  -0.61768  -0.61274  -0.61103
 Alpha  occ. eigenvalues --   -0.60525  -0.59357  -0.58682  -0.58558  -0.58149
 Alpha  occ. eigenvalues --   -0.57041  -0.56835  -0.56376  -0.56059  -0.55247
 Alpha  occ. eigenvalues --   -0.54824  -0.54762  -0.54105  -0.53476  -0.52789
 Alpha  occ. eigenvalues --   -0.52428  -0.52196  -0.51371  -0.51217  -0.50531
 Alpha  occ. eigenvalues --   -0.50079  -0.49335  -0.48917  -0.48688  -0.48173
 Alpha  occ. eigenvalues --   -0.46959  -0.46069  -0.45745  -0.45255  -0.45160
 Alpha  occ. eigenvalues --   -0.44731  -0.44704  -0.42351  -0.41927  -0.41879
 Alpha  occ. eigenvalues --   -0.41398  -0.41049  -0.40733  -0.39682  -0.38757
 Alpha  occ. eigenvalues --   -0.37380  -0.36413
 Alpha virt. eigenvalues --   -0.15060  -0.14302  -0.13438  -0.10610  -0.10248
 Alpha virt. eigenvalues --   -0.08503  -0.07367  -0.06655  -0.04989  -0.04359
 Alpha virt. eigenvalues --   -0.03226  -0.02983  -0.02305  -0.01756  -0.00848

 Mulliken charges:
               1
     1  N   -0.759756
     2  C   -0.130282
     3  C    0.634321
     4  O   -0.496458
     5  C   -0.300728
     6  C   -0.390684
     7  C    0.608948
     8  O   -0.482736
     9  O   -0.571181
    10  H    0.461717
    11  H    0.441821
    12  H    0.194698
    13  H    0.180999
    14  H    0.218718
    15  H    0.210281
    16  H    0.204224
    17  H    0.411726
    18  H    0.434089
    19  N   -0.602007
    20  C   -0.069800
    21  C    0.620820
    22  O   -0.554002
    23  C   -0.302019
    24  C   -0.104962
    25  C   -0.473509
    26  C   -0.449236
    27  H    0.365598
    28  H    0.177093
    29  H    0.170366
    30  H    0.174880
    31  H    0.120547
    32  H    0.169107
    33  H    0.179745
    34  H    0.131897
    35  H    0.173250
    36  H    0.160871
    37  H    0.159628
    38  N   -0.630559
    39  C   -0.113331
    40  C    0.614967
    41  O   -0.421789
    42  C   -0.268071
    43  C   -0.324921
    44  C   -0.163880
    45  N   -0.647025
    46  C    0.549218
    47  N   -0.585522
    48  N   -0.830496
    49  O   -0.557333
    50  H    0.430580
    51  H    0.374167
    52  H    0.220897
    53  H    0.140519
    54  H    0.195280
    55  H    0.208789
    56  H    0.174538
    57  H    0.180452
    58  H    0.144899
    59  H    0.375415
    60  H    0.308670
    61  H    0.368937
    62  H    0.337616
 Sum of Mulliken charges =   1.00000

 Dipole moment (field-independent basis, Debye):
    X=             56.2006    Y=             75.8973    Z=             64.4167  Tot=            114.3171
 Quadrupole moment (field-independent basis, Debye-Ang):
   XX=            498.5112   YY=           1028.8245   ZZ=            715.2114
   XY=            891.1195   XZ=            758.9363   YZ=           1038.2791

 Normal termination of Gaussian 16 at Tue May 24 03:34:03 2022.
