 Gaussian 16, Revision C.01,
 Gaussian 16:  ES64L-G16RevC.01  3-Jul-2019

 ----------------------------------------------------------------------
 # B3LYP/6-31G* empiricaldispersion=gd3 guess=read geom=check nosymm in
 tegral(ultrafinegrid)
 ----------------------------------------------------------------------

 ------------------------------------------------------
 Candidate Structure: Conf:731 Charge calc in gas phase
 ------------------------------------------------------
 Structure from the checkpoint file:  "conf-731.chk"
 Charge =  1 Multiplicity = 1

                          Input orientation:
 ---------------------------------------------------------------------
 Center     Atomic      Atomic             Coordinates (Angstroms)
 Number     Number       Type             X           Y           Z
 ---------------------------------------------------------------------
      1          7           0       14.432963   17.145192   13.945131
      2          6           0       13.655367   18.424492   14.119326
      3          6           0       14.167023   19.294190   12.953567
      4          8           0       15.367241   19.540350   12.936181
      5          6           0       13.956047   19.106208   15.466595
      6          6           0       13.126741   18.648642   16.680886
      7          6           0       13.282843   17.199146   17.099400
      8          8           0       13.481782   16.279836   16.314839
      9          8           0       13.117174   16.899148   18.386711
     10          1           0       12.926310   17.686226   18.925902
     11          1           0       15.429931   17.382253   13.856849
     12          1           0       12.601544   18.151169   14.050439
     13          1           0       13.755116   20.174339   15.333610
     14          1           0       15.029510   19.037780   15.672591
     15          1           0       13.358190   19.312940   17.521213
     16          1           0       12.050269   18.763539   16.484710
     17          1           0       14.252648   16.532384   14.765981
     18          1           0       14.112063   16.715615   13.055313
     19          7           0       13.284049   19.730143   12.026199
     20          6           0       11.940775   19.224344   11.780781
     21          6           0       11.922450   17.669847   11.683845
     22          8           0       12.961648   17.003594   11.610163
     23          6           0       11.392680   19.854875   10.480547
     24          6           0       11.291171   21.394952   10.481774
     25          6           0       10.754740   21.863802    9.120855
     26          6           0       10.415658   21.916749   11.629159
     27          1           0       13.732387   20.231079   11.265850
     28          1           0       11.285877   19.515205   12.612390
     29          1           0       10.393194   19.444155   10.292870
     30          1           0       12.023594   19.518635    9.646440
     31          1           0       12.299521   21.816313   10.605169
     32          1           0        9.735545   21.493652    8.953827
     33          1           0       10.723887   22.956937    9.073328
     34          1           0       11.382313   21.508615    8.295631
     35          1           0        9.408759   21.481605   11.584190
     36          1           0       10.842270   21.694023   12.614586
     37          1           0       10.307216   23.003951   11.564257
     38          7           0       10.679522   17.152310   11.736082
     39          6           0       10.223600   15.790654   11.392511
     40          6           0        8.802458   15.592182   11.959688
     41          8           0        8.003154   14.894731   11.392597
     42          6           0       11.155024   14.615990   11.761362
     43          6           0       11.681620   14.456753   13.197365
     44          6           0       10.675917   14.414905   14.360556
     45          7           0       10.478566   15.777533   14.920945
     46          6           0        9.629167   15.869358   16.079139
     47          7           0        8.387089   15.617780   16.130629
     48          7           0       10.315619   16.378699   17.200991
     49          8           0        8.511586   16.262389   13.094696
     50          1           0        9.337440   16.422962   13.633055
     51          1           0        9.923820   17.827537   11.771201
     52          1           0       10.089453   15.741284   10.306234
     53          1           0       12.021647   14.658554   11.097080
     54          1           0       10.586150   13.720427   11.483715
     55          1           0       12.249685   13.519642   13.207832
     56          1           0       12.414952   15.246916   13.398773
     57          1           0       11.045305   13.738544   15.142867
     58          1           0        9.705447   14.026291   14.039719
     59          1           0       11.391335   16.162402   15.156294
     60          1           0        7.990644   15.397966   15.215849
     61          1           0        9.659287   16.463544   17.974637
     62          1           0       11.091664   15.782451   17.483967
 ---------------------------------------------------------------------

 SCF Done:  E(RB3LYP) =  -1447.45150031     A.U. after    3 cycles

 Alpha  occ. eigenvalues --  -19.35189 -19.30136 -19.28202 -19.26849 -19.26040
 Alpha  occ. eigenvalues --  -19.23198 -14.58325 -14.50728 -14.50422 -14.46952
 Alpha  occ. eigenvalues --  -14.44922 -14.39409 -10.48588 -10.43745 -10.43734
 Alpha  occ. eigenvalues --  -10.41696 -10.41064 -10.38413 -10.38037 -10.36237
 Alpha  occ. eigenvalues --  -10.36011 -10.36009 -10.33506 -10.31943 -10.30959
 Alpha  occ. eigenvalues --  -10.30726 -10.30443 -10.27927 -10.27020  -1.26329
 Alpha  occ. eigenvalues --   -1.19438  -1.19054  -1.17960  -1.17789  -1.13363
 Alpha  occ. eigenvalues --   -1.11437  -1.08058  -1.07205  -1.06827  -0.99709
 Alpha  occ. eigenvalues --   -0.96319  -0.95045  -0.93573  -0.91540  -0.89018
 Alpha  occ. eigenvalues --   -0.87795  -0.85057  -0.81088  -0.79463  -0.78750
 Alpha  occ. eigenvalues --   -0.77469  -0.77159  -0.74694  -0.73802  -0.72698
 Alpha  occ. eigenvalues --   -0.72014  -0.71012  -0.69309  -0.68672  -0.68149
 Alpha  occ. eigenvalues --   -0.66966  -0.66711  -0.65310  -0.64275  -0.64066
 Alpha  occ. eigenvalues --   -0.63652  -0.62944  -0.61511  -0.61196  -0.60506
 Alpha  occ. eigenvalues --   -0.59769  -0.58627  -0.58238  -0.57552  -0.57087
 Alpha  occ. eigenvalues --   -0.56542  -0.55989  -0.55700  -0.55228  -0.54665
 Alpha  occ. eigenvalues --   -0.54169  -0.53996  -0.53290  -0.53225  -0.52738
 Alpha  occ. eigenvalues --   -0.52075  -0.51887  -0.51462  -0.50964  -0.50444
 Alpha  occ. eigenvalues --   -0.50243  -0.49584  -0.48501  -0.47552  -0.47357
 Alpha  occ. eigenvalues --   -0.46705  -0.46305  -0.45306  -0.44599  -0.44306
 Alpha  occ. eigenvalues --   -0.43986  -0.43756  -0.43563  -0.41371  -0.40990
 Alpha  occ. eigenvalues --   -0.40268  -0.39976  -0.39180  -0.38867  -0.36603
 Alpha  occ. eigenvalues --   -0.35898  -0.34707
 Alpha virt. eigenvalues --   -0.15708  -0.13302  -0.13156  -0.09625  -0.09124
 Alpha virt. eigenvalues --   -0.07777  -0.06945  -0.06205  -0.05062  -0.04137
 Alpha virt. eigenvalues --   -0.03093  -0.02741  -0.02376  -0.01132  -0.00709

 Mulliken charges:
               1
     1  N   -0.780101
     2  C   -0.114166
     3  C    0.627440
     4  O   -0.499202
     5  C   -0.290543
     6  C   -0.415642
     7  C    0.659630
     8  O   -0.509992
     9  O   -0.530245
    10  H    0.444065
    11  H    0.411354
    12  H    0.191690
    13  H    0.209439
    14  H    0.200195
    15  H    0.190926
    16  H    0.228045
    17  H    0.443587
    18  H    0.450526
    19  N   -0.594236
    20  C   -0.067769
    21  C    0.632545
    22  O   -0.567480
    23  C   -0.307347
    24  C   -0.082226
    25  C   -0.448638
    26  C   -0.455380
    27  H    0.365803
    28  H    0.174709
    29  H    0.157456
    30  H    0.172095
    31  H    0.136291
    32  H    0.156525
    33  H    0.170450
    34  H    0.157288
    35  H    0.151885
    36  H    0.135608
    37  H    0.177532
    38  N   -0.627516
    39  C   -0.036033
    40  C    0.570474
    41  O   -0.420022
    42  C   -0.286890
    43  C   -0.283512
    44  C   -0.158252
    45  N   -0.693110
    46  C    0.538382
    47  N   -0.579934
    48  N   -0.778414
    49  O   -0.606437
    50  H    0.454065
    51  H    0.355973
    52  H    0.210595
    53  H    0.184922
    54  H    0.192389
    55  H    0.178647
    56  H    0.099421
    57  H    0.172994
    58  H    0.194657
    59  H    0.324620
    60  H    0.318469
    61  H    0.350240
    62  H    0.342156
 Sum of Mulliken charges =   1.00000

 Dipole moment (field-independent basis, Debye):
    X=             63.5131    Y=             88.5908    Z=             68.9697  Tot=            128.9925
 Quadrupole moment (field-independent basis, Debye-Ang):
   XX=            645.4827   YY=           1481.7647   ZZ=            865.8015
   XY=           1152.0106   XZ=            921.4996   YZ=           1264.1446

 Normal termination of Gaussian 16 at Tue May 24 03:34:32 2022.
