 Gaussian 16, Revision C.01,
 Gaussian 16:  ES64L-G16RevC.01  3-Jul-2019

 ----------------------------------------------------------------------
 # B3LYP/6-31G* empiricaldispersion=gd3 guess=read geom=check nosymm in
 tegral(ultrafinegrid)
 ----------------------------------------------------------------------

 ------------------------------------------------------
 Candidate Structure: Conf:304 Charge calc in gas phase
 ------------------------------------------------------
 Structure from the checkpoint file:  "conf-304.chk"
 Charge =  1 Multiplicity = 1

                          Input orientation:
 ---------------------------------------------------------------------
 Center     Atomic      Atomic             Coordinates (Angstroms)
 Number     Number       Type             X           Y           Z
 ---------------------------------------------------------------------
      1          7           0        9.279265   14.930155   14.264118
      2          6           0       10.755834   15.174328   14.462082
      3          6           0       11.478206   14.103948   13.625933
      4          8           0       10.901453   13.037221   13.444370
      5          6           0       11.140354   15.051077   15.949070
      6          6           0       10.259831   15.850009   16.947504
      7          6           0        9.974067   17.231193   16.398801
      8          8           0        9.146113   17.371335   15.481151
      9          8           0       10.717522   18.183753   16.879549
     10          1           0       10.634509   19.083981   16.351683
     11          1           0        8.777380   15.704101   14.754986
     12          1           0       10.915801   16.186212   14.088989
     13          1           0       12.179916   15.384857   16.029387
     14          1           0       11.129159   13.992401   16.231635
     15          1           0        9.302865   15.341993   17.106638
     16          1           0       10.772773   15.909299   17.909263
     17          1           0        9.043698   14.953084   13.265765
     18          1           0        9.027701   13.991392   14.595955
     19          7           0       12.730247   14.403470   13.213230
     20          6           0       13.278700   15.761926   13.103305
     21          6           0       12.536654   16.524641   11.985365
     22          8           0       12.335323   15.993442   10.902746
     23          6           0       14.777590   15.685212   12.766050
     24          6           0       15.485307   17.050923   12.657198
     25          6           0       15.437860   17.848362   13.969977
     26          6           0       16.939299   16.836966   12.211521
     27          1           0       13.130792   13.704915   12.593709
     28          1           0       13.160670   16.260620   14.070824
     29          1           0       14.873178   15.154291   11.810092
     30          1           0       15.269622   15.074961   13.534620
     31          1           0       14.979242   17.640332   11.878783
     32          1           0       14.416955   18.119419   14.270005
     33          1           0       15.886388   17.276443   14.791925
     34          1           0       15.996406   18.784567   13.871199
     35          1           0       16.989499   16.296967   11.259673
     36          1           0       17.452357   17.795527   12.082113
     37          1           0       17.496111   16.257764   12.958569
     38          7           0       12.126754   17.789229   12.293633
     39          6           0       11.696482   18.703402   11.231366
     40          6           0       11.836111   20.161654   11.652695
     41          8           0       11.281284   21.072598   11.088918
     42          6           0       10.296289   18.401403   10.656109
     43          6           0        9.111400   18.333620   11.631388
     44          6           0        8.853106   19.588786   12.481262
     45          7           0        9.758126   19.598383   13.629906
     46          6           0       10.201215   20.737970   14.260210
     47          7           0       10.129019   21.971047   13.951068
     48          7           0       10.987599   20.385135   15.436036
     49          8           0       12.690380   20.356988   12.695881
     50          1           0       12.659583   21.318009   12.882572
     51          1           0       12.468039   18.219029   13.142183
     52          1           0       12.399216   18.579633   10.393392
     53          1           0       10.376470   17.445389   10.131886
     54          1           0       10.099811   19.171299    9.903238
     55          1           0        8.214437   18.126551   11.035818
     56          1           0        9.231892   17.473223   12.309165
     57          1           0        7.808338   19.609793   12.820603
     58          1           0        9.022278   20.484191   11.879336
     59          1           0        9.587107   18.822479   14.265456
     60          1           0        9.538156   22.143348   13.137676
     61          1           0       11.094414   21.240199   15.984193
     62          1           0       11.925030   20.129564   15.114684
 ---------------------------------------------------------------------

 SCF Done:  E(RB3LYP) =  -1447.48036804     A.U. after    1 cycles

 Alpha  occ. eigenvalues --  -19.31527 -19.31513 -19.28823 -19.26288 -19.25155
 Alpha  occ. eigenvalues --  -19.23782 -14.60681 -14.49974 -14.48763 -14.47633
 Alpha  occ. eigenvalues --  -14.45804 -14.40102 -10.46653 -10.43773 -10.43618
 Alpha  occ. eigenvalues --  -10.41272 -10.40876 -10.39335 -10.36841 -10.36256
 Alpha  occ. eigenvalues --  -10.35542 -10.34726 -10.32497 -10.30508 -10.30132
 Alpha  occ. eigenvalues --  -10.29874 -10.29243 -10.28205 -10.26523  -1.23828
 Alpha  occ. eigenvalues --   -1.22064  -1.19012  -1.15997  -1.15496  -1.14301
 Alpha  occ. eigenvalues --   -1.13079  -1.08895  -1.06718  -1.04980  -1.00501
 Alpha  occ. eigenvalues --   -0.96272  -0.95765  -0.92881  -0.90618  -0.89044
 Alpha  occ. eigenvalues --   -0.86998  -0.85027  -0.80362  -0.79367  -0.78621
 Alpha  occ. eigenvalues --   -0.76527  -0.76117  -0.74143  -0.74013  -0.73157
 Alpha  occ. eigenvalues --   -0.72746  -0.70782  -0.69216  -0.68803  -0.67120
 Alpha  occ. eigenvalues --   -0.66198  -0.65463  -0.65089  -0.63683  -0.63321
 Alpha  occ. eigenvalues --   -0.62170  -0.61644  -0.61553  -0.61003  -0.60508
 Alpha  occ. eigenvalues --   -0.59590  -0.59323  -0.59136  -0.58255  -0.57462
 Alpha  occ. eigenvalues --   -0.55991  -0.55598  -0.55563  -0.54953  -0.54283
 Alpha  occ. eigenvalues --   -0.53829  -0.53569  -0.53220  -0.52528  -0.51885
 Alpha  occ. eigenvalues --   -0.51337  -0.51247  -0.50906  -0.50765  -0.50220
 Alpha  occ. eigenvalues --   -0.49649  -0.48869  -0.47978  -0.47264  -0.46786
 Alpha  occ. eigenvalues --   -0.45890  -0.45586  -0.45216  -0.44790  -0.43752
 Alpha  occ. eigenvalues --   -0.43344  -0.43182  -0.42988  -0.42779  -0.40954
 Alpha  occ. eigenvalues --   -0.40585  -0.39808  -0.38926  -0.37928  -0.37206
 Alpha  occ. eigenvalues --   -0.36853  -0.34128
 Alpha virt. eigenvalues --   -0.14329  -0.13158  -0.11079  -0.10695  -0.10509
 Alpha virt. eigenvalues --   -0.08859  -0.06591  -0.05734  -0.03999  -0.03349
 Alpha virt. eigenvalues --   -0.02572  -0.02199  -0.01504  -0.00886  -0.00481

 Mulliken charges:
               1
     1  N   -0.740779
     2  C   -0.136978
     3  C    0.626078
     4  O   -0.499830
     5  C   -0.305448
     6  C   -0.364470
     7  C    0.612199
     8  O   -0.537912
     9  O   -0.560267
    10  H    0.473784
    11  H    0.432539
    12  H    0.210312
    13  H    0.207642
    14  H    0.207430
    15  H    0.185133
    16  H    0.220970
    17  H    0.422462
    18  H    0.417409
    19  N   -0.583102
    20  C   -0.078840
    21  C    0.606242
    22  O   -0.502367
    23  C   -0.287483
    24  C   -0.094032
    25  C   -0.449076
    26  C   -0.448466
    27  H    0.369056
    28  H    0.141875
    29  H    0.175157
    30  H    0.164042
    31  H    0.142282
    32  H    0.104379
    33  H    0.158245
    34  H    0.173554
    35  H    0.161650
    36  H    0.163866
    37  H    0.155173
    38  N   -0.626640
    39  C   -0.029925
    40  C    0.620769
    41  O   -0.449130
    42  C   -0.283880
    43  C   -0.266198
    44  C   -0.159498
    45  N   -0.642837
    46  C    0.548396
    47  N   -0.605053
    48  N   -0.836935
    49  O   -0.611673
    50  H    0.436954
    51  H    0.355376
    52  H    0.214537
    53  H    0.184951
    54  H    0.187642
    55  H    0.168387
    56  H    0.089515
    57  H    0.166571
    58  H    0.193292
    59  H    0.374617
    60  H    0.310895
    61  H    0.369569
    62  H    0.347866
 Sum of Mulliken charges =   1.00000

 Dipole moment (field-independent basis, Debye):
    X=             53.4199    Y=             79.4005    Z=             70.1725  Tot=            118.6689
 Quadrupole moment (field-independent basis, Debye-Ang):
   XX=            461.2073   YY=           1149.3838   ZZ=            862.0141
   XY=            893.1241   XZ=            778.0981   YZ=           1153.5934

 Normal termination of Gaussian 16 at Tue May 24 03:34:11 2022.
