 Gaussian 16, Revision C.01,
 Gaussian 16:  ES64L-G16RevC.01  3-Jul-2019

 ----------------------------------------------------------------------
 # B3LYP/6-31G* empiricaldispersion=gd3 guess=read geom=check nosymm in
 tegral(ultrafinegrid)
 ----------------------------------------------------------------------

 ------------------------------------------------------
 Candidate Structure: Conf:564 Charge calc in gas phase
 ------------------------------------------------------
 Structure from the checkpoint file:  "conf-564.chk"
 Charge =  1 Multiplicity = 1

                          Input orientation:
 ---------------------------------------------------------------------
 Center     Atomic      Atomic             Coordinates (Angstroms)
 Number     Number       Type             X           Y           Z
 ---------------------------------------------------------------------
      1          7           0        9.132990   16.957407   15.045110
      2          6           0        9.865618   15.807081   14.397571
      3          6           0        8.985920   15.439943   13.184552
      4          8           0        7.852296   15.039483   13.418847
      5          6           0       10.012161   14.597855   15.329761
      6          6           0       10.607212   14.875759   16.735905
      7          6           0       11.797364   15.819885   16.673712
      8          8           0       11.649794   16.993227   16.369568
      9          8           0       13.029126   15.350314   16.889172
     10          1           0       13.021902   14.417958   17.165900
     11          1           0        9.080324   17.709224   14.316159
     12          1           0       10.840220   16.211640   14.131275
     13          1           0       10.644366   13.877257   14.798411
     14          1           0        9.031782   14.126607   15.447696
     15          1           0        9.860045   15.358664   17.375355
     16          1           0       10.849871   13.919323   17.209646
     17          1           0        8.181693   16.669185   15.302830
     18          1           0        9.679053   17.299799   15.849986
     19          7           0        9.515957   15.573198   11.946535
     20          6           0       10.675983   16.375186   11.566945
     21          6           0       10.585613   17.804692   12.185742
     22          8           0        9.522590   18.225022   12.671770
     23          6           0       10.781295   16.464411   10.025546
     24          6           0       11.346785   15.220835    9.307068
     25          6           0       10.487278   13.958585    9.472453
     26          6           0       11.538021   15.548634    7.818048
     27          1           0        8.846757   15.368109   11.211971
     28          1           0       11.591118   15.894515   11.941638
     29          1           0       11.428637   17.315562    9.788064
     30          1           0        9.790898   16.723139    9.623779
     31          1           0       12.338194   15.017895    9.741195
     32          1           0        9.466054   14.128021    9.104472
     33          1           0       10.907944   13.134195    8.887557
     34          1           0       10.425910   13.625798   10.513403
     35          1           0       11.991773   14.703364    7.290640
     36          1           0       10.574431   15.761178    7.338425
     37          1           0       12.185533   16.421203    7.674669
     38          7           0       11.741205   18.480281   12.156215
     39          6           0       11.981452   19.916510   12.394589
     40          6           0       13.487734   20.152845   12.599029
     41          8           0       13.916543   21.231391   12.928304
     42          6           0       11.161784   20.558479   13.532796
     43          6           0       11.240663   19.914205   14.926787
     44          6           0       12.527932   20.142762   15.735284
     45          7           0       13.610055   19.309141   15.236475
     46          6           0       14.948108   19.687224   15.348314
     47          7           0       15.468884   20.720519   15.878953
     48          7           0       15.805622   18.834055   14.583077
     49          8           0       14.231172   19.058422   12.344027
     50          1           0       15.071626   19.109622   12.889880
     51          1           0       12.562020   18.003564   11.797593
     52          1           0       11.714005   20.453247   11.473518
     53          1           0       10.117244   20.567885   13.215698
     54          1           0       11.499272   21.598371   13.584992
     55          1           0       10.405426   20.314707   15.516386
     56          1           0       11.075921   18.835584   14.840939
     57          1           0       12.331930   19.961118   16.802393
     58          1           0       12.834085   21.187315   15.626794
     59          1           0       13.418351   18.315135   15.297390
     60          1           0       14.784854   21.319337   16.338301
     61          1           0       16.769866   19.094736   14.778738
     62          1           0       15.676278   17.843307   14.783437
 ---------------------------------------------------------------------

 SCF Done:  E(RB3LYP) =  -1447.45707644     A.U. after    2 cycles

 Alpha  occ. eigenvalues --  -19.35358 -19.29788 -19.26979 -19.25745 -19.25639
 Alpha  occ. eigenvalues --  -19.21974 -14.59073 -14.49812 -14.49280 -14.44132
 Alpha  occ. eigenvalues --  -14.43826 -14.37115 -10.48239 -10.43338 -10.42683
 Alpha  occ. eigenvalues --  -10.40813 -10.40807 -10.37470 -10.36597 -10.36562
 Alpha  occ. eigenvalues --  -10.36129 -10.34747 -10.31241 -10.31183 -10.29820
 Alpha  occ. eigenvalues --  -10.29241 -10.28814 -10.27268 -10.26531  -1.26160
 Alpha  occ. eigenvalues --   -1.18611  -1.18259  -1.17715  -1.16903  -1.13702
 Alpha  occ. eigenvalues --   -1.09868  -1.06513  -1.06126  -1.05588  -0.97998
 Alpha  occ. eigenvalues --   -0.96385  -0.92905  -0.92733  -0.90166  -0.89140
 Alpha  occ. eigenvalues --   -0.86880  -0.84104  -0.80412  -0.78371  -0.77996
 Alpha  occ. eigenvalues --   -0.77505  -0.76558  -0.74874  -0.73085  -0.72465
 Alpha  occ. eigenvalues --   -0.71600  -0.69928  -0.68108  -0.67828  -0.67472
 Alpha  occ. eigenvalues --   -0.67249  -0.65246  -0.63753  -0.63272  -0.63122
 Alpha  occ. eigenvalues --   -0.62557  -0.62164  -0.60738  -0.60239  -0.59806
 Alpha  occ. eigenvalues --   -0.58998  -0.58659  -0.57146  -0.56710  -0.56144
 Alpha  occ. eigenvalues --   -0.55880  -0.55268  -0.55017  -0.54508  -0.54054
 Alpha  occ. eigenvalues --   -0.53740  -0.53385  -0.52544  -0.52255  -0.51859
 Alpha  occ. eigenvalues --   -0.51674  -0.51143  -0.50977  -0.50319  -0.48803
 Alpha  occ. eigenvalues --   -0.48669  -0.48021  -0.47469  -0.47201  -0.46890
 Alpha  occ. eigenvalues --   -0.45996  -0.45339  -0.44012  -0.43921  -0.43717
 Alpha  occ. eigenvalues --   -0.43603  -0.43147  -0.42882  -0.40343  -0.40187
 Alpha  occ. eigenvalues --   -0.39709  -0.38566  -0.38268  -0.36739  -0.35475
 Alpha  occ. eigenvalues --   -0.33866  -0.31397
 Alpha virt. eigenvalues --   -0.15594  -0.13340  -0.12456  -0.09630  -0.07863
 Alpha virt. eigenvalues --   -0.07061  -0.05759  -0.04158  -0.03595  -0.02738
 Alpha virt. eigenvalues --   -0.02279  -0.01936  -0.01398  -0.01090  -0.00271

 Mulliken charges:
               1
     1  N   -0.767911
     2  C   -0.110032
     3  C    0.621750
     4  O   -0.498785
     5  C   -0.298438
     6  C   -0.402623
     7  C    0.617341
     8  O   -0.472100
     9  O   -0.529318
    10  H    0.440453
    11  H    0.456916
    12  H    0.201907
    13  H    0.194867
    14  H    0.221105
    15  H    0.202452
    16  H    0.191946
    17  H    0.411118
    18  H    0.421346
    19  N   -0.584456
    20  C   -0.061164
    21  C    0.622689
    22  O   -0.578561
    23  C   -0.304070
    24  C   -0.075747
    25  C   -0.462468
    26  C   -0.449320
    27  H    0.365399
    28  H    0.165599
    29  H    0.166778
    30  H    0.166093
    31  H    0.131636
    32  H    0.148123
    33  H    0.172981
    34  H    0.145296
    35  H    0.167430
    36  H    0.157012
    37  H    0.154116
    38  N   -0.611378
    39  C   -0.044409
    40  C    0.650615
    41  O   -0.454539
    42  C   -0.275988
    43  C   -0.292729
    44  C   -0.119600
    45  N   -0.615701
    46  C    0.561584
    47  N   -0.600120
    48  N   -0.781804
    49  O   -0.645392
    50  H    0.459703
    51  H    0.369315
    52  H    0.204460
    53  H    0.173218
    54  H    0.190303
    55  H    0.147357
    56  H    0.108573
    57  H    0.150712
    58  H    0.180975
    59  H    0.318893
    60  H    0.295404
    61  H    0.360309
    62  H    0.320879
 Sum of Mulliken charges =   1.00000

 Dipole moment (field-independent basis, Debye):
    X=             51.8458    Y=             74.1888    Z=             69.5539  Tot=            114.1477
 Quadrupole moment (field-independent basis, Debye-Ang):
   XX=            390.5870   YY=            972.1199   ZZ=            882.0844
   XY=            775.8160   XZ=            745.8384   YZ=           1069.9762

 Normal termination of Gaussian 16 at Tue May 24 03:34:21 2022.
