 Gaussian 16, Revision C.01,
 Gaussian 16:  ES64L-G16RevC.01  3-Jul-2019

 ----------------------------------------------------------------------
 # B3LYP/6-31G* empiricaldispersion=gd3 guess=read geom=check nosymm in
 tegral(ultrafinegrid)
 ----------------------------------------------------------------------

 ------------------------------------------------------
 Candidate Structure: Conf:472 Charge calc in gas phase
 ------------------------------------------------------
 Structure from the checkpoint file:  "conf-472.chk"
 Charge =  1 Multiplicity = 1

                          Input orientation:
 ---------------------------------------------------------------------
 Center     Atomic      Atomic             Coordinates (Angstroms)
 Number     Number       Type             X           Y           Z
 ---------------------------------------------------------------------
      1          7           0       12.990646   16.569243   10.440204
      2          6           0       12.561030   15.893132   11.719756
      3          6           0       13.913933   15.485527   12.344060
      4          8           0       14.656421   14.808130   11.640453
      5          6           0       11.670884   14.660120   11.515148
      6          6           0       10.455987   14.766674   10.545781
      7          6           0        9.843704   16.146584   10.332738
      8          8           0       10.468963   17.044477    9.776766
      9          8           0        8.586510   16.374054   10.683987
     10          1           0        8.259926   15.786017   11.402188
     11          1           0       13.478444   17.438971   10.706002
     12          1           0       12.013922   16.646819   12.278690
     13          1           0       11.302181   14.421784   12.518086
     14          1           0       12.295049   13.823760   11.188133
     15          1           0       10.768354   14.457907    9.541325
     16          1           0        9.696447   14.047887   10.864859
     17          1           0       13.652184   15.953846    9.949160
     18          1           0       12.138062   16.798533    9.869396
     19          7           0       14.243039   15.896548   13.588293
     20          6           0       13.565148   16.856414   14.448216
     21          6           0       13.301303   18.198638   13.702408
     22          8           0       13.732251   18.438279   12.575390
     23          6           0       14.428457   17.005379   15.729325
     24          6           0       13.838065   17.743169   16.949494
     25          6           0       12.476884   17.178027   17.391164
     26          6           0       14.845113   17.661232   18.109002
     27          1           0       15.187393   15.629518   13.847879
     28          1           0       12.587247   16.442883   14.724159
     29          1           0       15.377182   17.478801   15.444947
     30          1           0       14.665870   15.982295   16.050945
     31          1           0       13.724912   18.809324   16.707870
     32          1           0       12.544825   16.098107   17.571071
     33          1           0       12.144457   17.653185   18.318721
     34          1           0       11.676048   17.343227   16.655420
     35          1           0       14.489391   18.235430   18.970004
     36          1           0       14.985887   16.622499   18.431751
     37          1           0       15.822355   18.061481   17.818159
     38          7           0       12.439767   19.009982   14.371861
     39          6           0       12.063959   20.392410   14.015588
     40          6           0       11.070878   20.940753   15.068331
     41          8           0       11.101682   22.104616   15.368065
     42          6           0       11.536670   20.601659   12.572710
     43          6           0       10.616008   19.551386   11.926550
     44          6           0        9.362568   19.073403   12.675579
     45          7           0        9.711218   18.071413   13.716413
     46          6           0        9.051371   16.836812   13.794199
     47          7           0        7.901158   16.507096   13.335914
     48          7           0        9.850031   15.855434   14.415996
     49          8           0       10.207915   20.079421   15.654900
     50          1           0       10.011406   19.280389   15.107747
     51          1           0       12.287502   18.785357   15.347013
     52          1           0       12.942394   21.035015   14.126011
     53          1           0       12.406995   20.700620   11.918626
     54          1           0       11.041413   21.579498   12.582323
     55          1           0       10.281702   19.974013   10.972870
     56          1           0       11.204351   18.669507   11.650781
     57          1           0        8.693349   18.608128   11.947013
     58          1           0        8.828772   19.910498   13.138317
     59          1           0       10.716724   17.938891   13.761387
     60          1           0        7.429709   17.291230   12.885353
     61          1           0        9.286289   15.030300   14.605435
     62          1           0       10.268477   16.177302   15.285773
 ---------------------------------------------------------------------

 SCF Done:  E(RB3LYP) =  -1447.45378720     A.U. after    1 cycles

 Alpha  occ. eigenvalues --  -19.32988 -19.28875 -19.28618 -19.27378 -19.26067
 Alpha  occ. eigenvalues --  -19.23513 -14.58069 -14.51155 -14.50703 -14.49184
 Alpha  occ. eigenvalues --  -14.48171 -14.42646 -10.47045 -10.44187 -10.43830
 Alpha  occ. eigenvalues --  -10.42270 -10.42154 -10.40583 -10.38601 -10.36428
 Alpha  occ. eigenvalues --  -10.35130 -10.35055 -10.34606 -10.32733 -10.31979
 Alpha  occ. eigenvalues --  -10.31351 -10.31088 -10.30167 -10.28079  -1.24536
 Alpha  occ. eigenvalues --   -1.19837  -1.19243  -1.18347  -1.16199  -1.12848
 Alpha  occ. eigenvalues --   -1.11946  -1.11272  -1.07537  -1.07227  -1.02362
 Alpha  occ. eigenvalues --   -0.98164  -0.95285  -0.94409  -0.92075  -0.88941
 Alpha  occ. eigenvalues --   -0.88185  -0.86053  -0.81085  -0.80318  -0.79702
 Alpha  occ. eigenvalues --   -0.78131  -0.75970  -0.74862  -0.74132  -0.73146
 Alpha  occ. eigenvalues --   -0.72540  -0.71252  -0.71076  -0.70191  -0.68819
 Alpha  occ. eigenvalues --   -0.68023  -0.67649  -0.66092  -0.64626  -0.63774
 Alpha  occ. eigenvalues --   -0.63428  -0.62979  -0.62210  -0.61315  -0.61101
 Alpha  occ. eigenvalues --   -0.59636  -0.59163  -0.59012  -0.58361  -0.57481
 Alpha  occ. eigenvalues --   -0.57118  -0.56791  -0.56194  -0.55893  -0.55266
 Alpha  occ. eigenvalues --   -0.54792  -0.54672  -0.54086  -0.53643  -0.53265
 Alpha  occ. eigenvalues --   -0.52864  -0.51901  -0.51431  -0.50970  -0.50573
 Alpha  occ. eigenvalues --   -0.50446  -0.49711  -0.49028  -0.48484  -0.48326
 Alpha  occ. eigenvalues --   -0.47129  -0.46708  -0.45601  -0.45470  -0.45277
 Alpha  occ. eigenvalues --   -0.45130  -0.44909  -0.42516  -0.41767  -0.41281
 Alpha  occ. eigenvalues --   -0.41267  -0.40484  -0.40282  -0.39903  -0.39325
 Alpha  occ. eigenvalues --   -0.37174  -0.36810
 Alpha virt. eigenvalues --   -0.14854  -0.14050  -0.13183  -0.10419  -0.09752
 Alpha virt. eigenvalues --   -0.09229  -0.07338  -0.05018  -0.04632  -0.03670
 Alpha virt. eigenvalues --   -0.03504  -0.01922  -0.01701  -0.01096  -0.00809

 Mulliken charges:
               1
     1  N   -0.771172
     2  C   -0.101974
     3  C    0.628930
     4  O   -0.502659
     5  C   -0.297079
     6  C   -0.401639
     7  C    0.624922
     8  O   -0.490103
     9  O   -0.544300
    10  H    0.443462
    11  H    0.433141
    12  H    0.187004
    13  H    0.204226
    14  H    0.210129
    15  H    0.214953
    16  H    0.197755
    17  H    0.411203
    18  H    0.440739
    19  N   -0.606841
    20  C   -0.061084
    21  C    0.609594
    22  O   -0.538431
    23  C   -0.305344
    24  C   -0.110324
    25  C   -0.471709
    26  C   -0.453204
    27  H    0.365323
    28  H    0.174649
    29  H    0.177277
    30  H    0.173171
    31  H    0.145727
    32  H    0.165393
    33  H    0.195276
    34  H    0.110228
    35  H    0.175293
    36  H    0.160401
    37  H    0.165137
    38  N   -0.674772
    39  C   -0.029670
    40  C    0.561405
    41  O   -0.410359
    42  C   -0.290811
    43  C   -0.311150
    44  C   -0.166388
    45  N   -0.696588
    46  C    0.578006
    47  N   -0.654010
    48  N   -0.779240
    49  O   -0.604295
    50  H    0.450518
    51  H    0.372974
    52  H    0.215784
    53  H    0.184071
    54  H    0.195704
    55  H    0.193381
    56  H    0.128928
    57  H    0.190676
    58  H    0.191080
    59  H    0.369126
    60  H    0.320181
    61  H    0.358941
    62  H    0.348434
 Sum of Mulliken charges =   1.00000

 Dipole moment (field-independent basis, Debye):
    X=             58.5165    Y=             77.5826    Z=             61.7431  Tot=            115.1323
 Quadrupole moment (field-independent basis, Debye-Ang):
   XX=            553.5141   YY=           1075.3069   ZZ=            655.1694
   XY=            956.6725   XZ=            767.1898   YZ=            991.1900

 Normal termination of Gaussian 16 at Tue May 24 03:34:12 2022.
