 Gaussian 16, Revision C.01,
 Gaussian 16:  ES64L-G16RevC.01  3-Jul-2019

 ----------------------------------------------------------------------
 # B3LYP/6-31G* empiricaldispersion=gd3 guess=read geom=check nosymm in
 tegral(ultrafinegrid)
 ----------------------------------------------------------------------

 ------------------------------------------------------
 Candidate Structure: Conf:879 Charge calc in gas phase
 ------------------------------------------------------
 Structure from the checkpoint file:  "conf-879.chk"
 Charge =  1 Multiplicity = 1

                          Input orientation:
 ---------------------------------------------------------------------
 Center     Atomic      Atomic             Coordinates (Angstroms)
 Number     Number       Type             X           Y           Z
 ---------------------------------------------------------------------
      1          7           0        8.638159   17.327786   12.111427
      2          6           0        9.847405   16.958008   11.285880
      3          6           0       10.083918   18.188620   10.387990
      4          8           0        9.198463   18.479922    9.594104
      5          6           0        9.626174   15.716526   10.412924
      6          6           0        9.155843   14.434788   11.153553
      7          6           0        9.891058   14.294267   12.470634
      8          8           0        9.583106   14.972462   13.437280
      9          8           0       10.976572   13.511075   12.546158
     10          1           0       11.097326   12.972580   11.744660
     11          1           0        7.847355   17.548303   11.494028
     12          1           0       10.641271   16.788862   12.011767
     13          1           0       10.583183   15.523733    9.914699
     14          1           0        8.908054   15.961414    9.624794
     15          1           0        8.089407   14.495908   11.390469
     16          1           0        9.288664   13.570138   10.495731
     17          1           0        8.419600   16.571306   12.776010
     18          1           0        8.910906   18.196820   12.636620
     19          7           0       11.261510   18.841664   10.520027
     20          6           0       12.135009   18.821037   11.695850
     21          6           0       11.314293   19.063522   12.995133
     22          8           0       10.126237   19.435849   12.954998
     23          6           0       13.228021   19.898713   11.475242
     24          6           0       14.439847   19.912277   12.429370
     25          6           0       15.175826   18.563564   12.474967
     26          6           0       15.397543   21.031677   11.990013
     27          1           0       11.304660   19.679293    9.946679
     28          1           0       12.623048   17.841904   11.769496
     29          1           0       12.740397   20.883036   11.490024
     30          1           0       13.605473   19.744470   10.454998
     31          1           0       14.099362   20.157749   13.442351
     32          1           0       15.502808   18.267342   11.469785
     33          1           0       16.066686   18.642655   13.105811
     34          1           0       14.571611   17.744501   12.885778
     35          1           0       15.800967   20.834082   10.989044
     36          1           0       14.894786   22.005227   11.965703
     37          1           0       16.242409   21.107593   12.681807
     38          7           0       11.985065   18.823208   14.122954
     39          6           0       11.634999   19.294576   15.472311
     40          6           0       12.761991   18.847991   16.421624
     41          8           0       12.590022   18.703508   17.609320
     42          6           0       10.253019   18.872877   16.008946
     43          6           0        9.823118   17.400364   15.893128
     44          6           0       10.704181   16.302013   16.544654
     45          7           0       11.624552   15.709675   15.581043
     46          6           0       12.990517   15.732801   15.587053
     47          7           0       13.796834   16.054737   16.550300
     48          7           0       13.549578   15.460270   14.323597
     49          8           0       13.916689   18.593743   15.778413
     50          1           0       14.313447   17.770293   16.206984
     51          1           0       12.936810   18.475302   14.061676
     52          1           0       11.649627   20.393962   15.456263
     53          1           0        9.504947   19.477511   15.489147
     54          1           0       10.242682   19.173874   17.060829
     55          1           0        8.823388   17.341535   16.340939
     56          1           0        9.694453   17.140859   14.834786
     57          1           0       10.055792   15.511529   16.939747
     58          1           0       11.263457   16.706029   17.389122
     59          1           0       11.163084   15.326489   14.765482
     60          1           0       13.300127   16.227422   17.422634
     61          1           0       14.526796   15.204154   14.425346
     62          1           0       13.050213   14.749765   13.795440
 ---------------------------------------------------------------------

 SCF Done:  E(RB3LYP) =  -1447.46759847     A.U. after    3 cycles

 Alpha  occ. eigenvalues --  -19.36470 -19.30751 -19.27371 -19.25665 -19.25603
 Alpha  occ. eigenvalues --  -19.23435 -14.59299 -14.49659 -14.48646 -14.44969
 Alpha  occ. eigenvalues --  -14.44475 -14.38018 -10.49073 -10.43290 -10.42300
 Alpha  occ. eigenvalues --  -10.41663 -10.40980 -10.38506 -10.37022 -10.36913
 Alpha  occ. eigenvalues --  -10.36496 -10.34961 -10.31845 -10.30828 -10.29332
 Alpha  occ. eigenvalues --  -10.29312 -10.28932 -10.26943 -10.26183  -1.27110
 Alpha  occ. eigenvalues --   -1.19201  -1.18805  -1.18400  -1.16711  -1.13841
 Alpha  occ. eigenvalues --   -1.10780  -1.07581  -1.06377  -1.05355  -0.98639
 Alpha  occ. eigenvalues --   -0.96871  -0.93863  -0.92528  -0.90045  -0.89438
 Alpha  occ. eigenvalues --   -0.86589  -0.84332  -0.80794  -0.78780  -0.78251
 Alpha  occ. eigenvalues --   -0.77866  -0.76296  -0.75037  -0.73218  -0.72592
 Alpha  occ. eigenvalues --   -0.71992  -0.69884  -0.68865  -0.68243  -0.67859
 Alpha  occ. eigenvalues --   -0.66384  -0.65135  -0.64628  -0.64257  -0.63681
 Alpha  occ. eigenvalues --   -0.62482  -0.62291  -0.61312  -0.61005  -0.60399
 Alpha  occ. eigenvalues --   -0.59500  -0.59382  -0.57500  -0.56743  -0.56455
 Alpha  occ. eigenvalues --   -0.56340  -0.55453  -0.55143  -0.54624  -0.54508
 Alpha  occ. eigenvalues --   -0.54055  -0.53095  -0.52975  -0.52680  -0.52306
 Alpha  occ. eigenvalues --   -0.51785  -0.51375  -0.50913  -0.50053  -0.49547
 Alpha  occ. eigenvalues --   -0.48856  -0.48486  -0.48231  -0.47572  -0.46885
 Alpha  occ. eigenvalues --   -0.46350  -0.45546  -0.44849  -0.44305  -0.44096
 Alpha  occ. eigenvalues --   -0.43338  -0.42803  -0.42585  -0.40709  -0.40206
 Alpha  occ. eigenvalues --   -0.39623  -0.38717  -0.38180  -0.37182  -0.36598
 Alpha  occ. eigenvalues --   -0.35293  -0.32050
 Alpha virt. eigenvalues --   -0.16428  -0.13311  -0.12469  -0.10492  -0.09840
 Alpha virt. eigenvalues --   -0.07651  -0.05821  -0.05032  -0.03298  -0.02592
 Alpha virt. eigenvalues --   -0.02327  -0.01661  -0.01133  -0.00535  -0.00150

 Mulliken charges:
               1
     1  N   -0.766609
     2  C   -0.121227
     3  C    0.625379
     4  O   -0.498382
     5  C   -0.300015
     6  C   -0.395117
     7  C    0.622645
     8  O   -0.472448
     9  O   -0.540071
    10  H    0.444253
    11  H    0.412121
    12  H    0.205116
    13  H    0.196586
    14  H    0.223925
    15  H    0.205538
    16  H    0.197044
    17  H    0.422160
    18  H    0.455858
    19  N   -0.589808
    20  C   -0.074043
    21  C    0.620714
    22  O   -0.583890
    23  C   -0.301525
    24  C   -0.101036
    25  C   -0.477148
    26  C   -0.450087
    27  H    0.364416
    28  H    0.182374
    29  H    0.166781
    30  H    0.167802
    31  H    0.148301
    32  H    0.148424
    33  H    0.175757
    34  H    0.152132
    35  H    0.152976
    36  H    0.155083
    37  H    0.168721
    38  N   -0.623394
    39  C   -0.038827
    40  C    0.604814
    41  O   -0.446987
    42  C   -0.282067
    43  C   -0.277934
    44  C   -0.156961
    45  N   -0.620464
    46  C    0.606898
    47  N   -0.717420
    48  N   -0.765033
    49  O   -0.619044
    50  H    0.450160
    51  H    0.412836
    52  H    0.206427
    53  H    0.164428
    54  H    0.192404
    55  H    0.160420
    56  H    0.102942
    57  H    0.169380
    58  H    0.198588
    59  H    0.350488
    60  H    0.315815
    61  H    0.349707
    62  H    0.320125
 Sum of Mulliken charges =   1.00000

 Dipole moment (field-independent basis, Debye):
    X=             49.8824    Y=             77.5934    Z=             56.1853  Tot=            108.0083
 Quadrupole moment (field-independent basis, Debye-Ang):
   XX=            369.8919   YY=           1114.1932   ZZ=            479.7519
   XY=            817.3964   XZ=            569.7722   YZ=            914.7467

 Normal termination of Gaussian 16 at Tue May 24 03:34:26 2022.
