 Gaussian 16, Revision C.01,
 Gaussian 16:  ES64L-G16RevC.01  3-Jul-2019

 ----------------------------------------------------------------------
 # B3LYP/6-31G* empiricaldispersion=gd3 guess=read geom=check nosymm in
 tegral(ultrafinegrid)
 ----------------------------------------------------------------------

 ------------------------------------------------------
 Candidate Structure: Conf:796 Charge calc in gas phase
 ------------------------------------------------------
 Structure from the checkpoint file:  "conf-796.chk"
 Charge =  1 Multiplicity = 1

                          Input orientation:
 ---------------------------------------------------------------------
 Center     Atomic      Atomic             Coordinates (Angstroms)
 Number     Number       Type             X           Y           Z
 ---------------------------------------------------------------------
      1          7           0        8.795798   17.878034   12.120676
      2          6           0       10.003765   17.413879   11.341140
      3          6           0       10.465591   18.677193   10.596282
      4          8           0        9.668859   19.201622    9.828785
      5          6           0        9.683755   16.275908   10.362744
      6          6           0        8.970970   15.039242   10.980707
      7          6           0        9.492104   14.781544   12.377113
      8          8           0        9.066384   15.456413   13.328323
      9          8           0       10.465663   13.916346   12.467451
     10          1           0       10.913677   13.929745   13.399184
     11          1           0        8.098017   18.273049   11.479277
     12          1           0       10.706388   17.073401   12.099618
     13          1           0       10.644933   15.966080    9.937919
     14          1           0        9.084921   16.672972    9.537603
     15          1           0        7.894211   15.218228   11.056901
     16          1           0        9.128729   14.172621   10.335735
     17          1           0        8.436061   17.076364   12.677789
     18          1           0        9.134067   18.622213   12.762563
     19          7           0       11.716213   19.140121   10.836359
     20          6           0       12.584189   18.792294   11.952483
     21          6           0       11.846191   18.939556   13.321004
     22          8           0       10.721193   19.446853   13.398710
     23          6           0       13.841214   19.689618   11.907980
     24          6           0       14.689044   19.579486   10.623046
     25          6           0       15.882469   20.541233   10.723499
     26          6           0       15.159395   18.142218   10.361600
     27          1           0       11.902943   20.020667   10.367670
     28          1           0       12.901747   17.746155   11.852194
     29          1           0       14.479094   19.436029   12.763296
     30          1           0       13.523663   20.730198   12.061622
     31          1           0       14.076308   19.896178    9.766994
     32          1           0       15.555595   21.573110   10.895136
     33          1           0       16.546818   20.255702   11.548801
     34          1           0       16.471630   20.524595    9.801104
     35          1           0       15.730050   17.754368   11.215841
     36          1           0       14.323888   17.459244   10.166843
     37          1           0       15.814303   18.106515    9.485353
     38          7           0       12.546594   18.432674   14.354838
     39          6           0       12.378763   18.654722   15.802146
     40          6           0       12.987990   17.493140   16.594460
     41          8           0       12.808966   17.342865   17.778321
     42          6           0       10.974488   19.019687   16.328260
     43          6           0        9.800014   18.042114   16.158915
     44          6           0        9.996711   16.605943   16.669929
     45          7           0       10.733759   15.840525   15.667521
     46          6           0       11.582308   14.793577   15.918767
     47          7           0       12.103798   14.350064   16.996623
     48          7           0       12.009855   14.192414   14.666885
     49          8           0       13.795452   16.691765   15.857615
     50          1           0       14.041729   15.942967   16.441849
     51          1           0       13.447893   18.030745   14.125994
     52          1           0       13.016262   19.515093   16.061056
     53          1           0       10.692715   19.973866   15.877657
     54          1           0       11.128749   19.199468   17.397178
     55          1           0        8.949471   18.485575   16.690470
     56          1           0        9.510093   18.000825   15.101869
     57          1           0        9.019193   16.140258   16.855223
     58          1           0       10.544046   16.605648   17.613946
     59          1           0       10.209952   15.737485   14.801459
     60          1           0       11.717556   14.792563   17.830732
     61          1           0       12.530146   13.347863   14.907552
     62          1           0       12.669660   14.833030   14.219620
 ---------------------------------------------------------------------

 SCF Done:  E(RB3LYP) =  -1447.48754311     A.U. after    1 cycles

 Alpha  occ. eigenvalues --  -19.31480 -19.31188 -19.28112 -19.26369 -19.25499
 Alpha  occ. eigenvalues --  -19.25306 -14.58305 -14.50401 -14.49913 -14.47087
 Alpha  occ. eigenvalues --  -14.45184 -14.39604 -10.45995 -10.43819 -10.43394
 Alpha  occ. eigenvalues --  -10.43152 -10.40188 -10.38964 -10.37785 -10.36870
 Alpha  occ. eigenvalues --  -10.34715 -10.33668 -10.32057 -10.31836 -10.30361
 Alpha  occ. eigenvalues --  -10.30052 -10.29546 -10.27963 -10.27064  -1.23371
 Alpha  occ. eigenvalues --   -1.22222  -1.18535  -1.17414  -1.14724  -1.13274
 Alpha  occ. eigenvalues --   -1.12870  -1.08489  -1.06832  -1.06575  -0.99955
 Alpha  occ. eigenvalues --   -0.95371  -0.94960  -0.93402  -0.91344  -0.88013
 Alpha  occ. eigenvalues --   -0.87399  -0.85292  -0.79907  -0.79514  -0.78864
 Alpha  occ. eigenvalues --   -0.77303  -0.74483  -0.74014  -0.73575  -0.72857
 Alpha  occ. eigenvalues --   -0.71686  -0.70653  -0.68745  -0.68600  -0.67826
 Alpha  occ. eigenvalues --   -0.66295  -0.65399  -0.64409  -0.63420  -0.62990
 Alpha  occ. eigenvalues --   -0.62843  -0.62193  -0.61119  -0.60402  -0.60036
 Alpha  occ. eigenvalues --   -0.59653  -0.59069  -0.58696  -0.57782  -0.57241
 Alpha  occ. eigenvalues --   -0.56607  -0.56042  -0.55348  -0.54690  -0.54548
 Alpha  occ. eigenvalues --   -0.54075  -0.53712  -0.53072  -0.52482  -0.51808
 Alpha  occ. eigenvalues --   -0.51405  -0.50786  -0.50662  -0.50303  -0.49942
 Alpha  occ. eigenvalues --   -0.49772  -0.49580  -0.48508  -0.47790  -0.47333
 Alpha  occ. eigenvalues --   -0.45896  -0.45310  -0.45187  -0.44628  -0.44266
 Alpha  occ. eigenvalues --   -0.43744  -0.43542  -0.43101  -0.41991  -0.40838
 Alpha  occ. eigenvalues --   -0.40362  -0.39871  -0.39666  -0.38792  -0.37704
 Alpha  occ. eigenvalues --   -0.36846  -0.33657
 Alpha virt. eigenvalues --   -0.13603  -0.12805  -0.12676  -0.10780  -0.08592
 Alpha virt. eigenvalues --   -0.07416  -0.05797  -0.04221  -0.03727  -0.02564
 Alpha virt. eigenvalues --   -0.01867  -0.00791  -0.00772  -0.00433   0.00097

 Mulliken charges:
               1
     1  N   -0.769832
     2  C   -0.122935
     3  C    0.627761
     4  O   -0.497614
     5  C   -0.298826
     6  C   -0.359687
     7  C    0.600582
     8  O   -0.534014
     9  O   -0.557851
    10  H    0.472626
    11  H    0.410650
    12  H    0.191590
    13  H    0.199164
    14  H    0.213101
    15  H    0.188321
    16  H    0.216891
    17  H    0.430146
    18  H    0.450598
    19  N   -0.590594
    20  C   -0.070042
    21  C    0.634964
    22  O   -0.565671
    23  C   -0.306121
    24  C   -0.079910
    25  C   -0.448459
    26  C   -0.455318
    27  H    0.363635
    28  H    0.169539
    29  H    0.152161
    30  H    0.169770
    31  H    0.139242
    32  H    0.156957
    33  H    0.152958
    34  H    0.170469
    35  H    0.145709
    36  H    0.138112
    37  H    0.177669
    38  N   -0.609556
    39  C   -0.050216
    40  C    0.642272
    41  O   -0.449589
    42  C   -0.275995
    43  C   -0.267831
    44  C   -0.162242
    45  N   -0.640488
    46  C    0.556559
    47  N   -0.624896
    48  N   -0.827439
    49  O   -0.612119
    50  H    0.441105
    51  H    0.358631
    52  H    0.209749
    53  H    0.178894
    54  H    0.187961
    55  H    0.166399
    56  H    0.110036
    57  H    0.168156
    58  H    0.192939
    59  H    0.376838
    60  H    0.310126
    61  H    0.365726
    62  H    0.339240
 Sum of Mulliken charges =   1.00000

 Dipole moment (field-independent basis, Debye):
    X=             54.1037    Y=             83.9229    Z=             60.1541  Tot=            116.5709
 Quadrupole moment (field-independent basis, Debye-Ang):
   XX=            477.1788   YY=           1308.0999   ZZ=            591.1319
   XY=            956.8234   XZ=            674.3446   YZ=           1058.6184

 Normal termination of Gaussian 16 at Tue May 24 03:34:18 2022.
