 Gaussian 16, Revision C.01,
 Gaussian 16:  ES64L-G16RevC.01  3-Jul-2019

 ----------------------------------------------------------------------
 # B3LYP/6-31G* empiricaldispersion=gd3 guess=read geom=check nosymm in
 tegral(ultrafinegrid)
 ----------------------------------------------------------------------

 -----------------------------------------------------
 Candidate Structure: Conf:49 Charge calc in gas phase
 -----------------------------------------------------
 Structure from the checkpoint file:  "conf-49.chk"
 Charge =  1 Multiplicity = 1

                          Input orientation:
 ---------------------------------------------------------------------
 Center     Atomic      Atomic             Coordinates (Angstroms)
 Number     Number       Type             X           Y           Z
 ---------------------------------------------------------------------
      1          7           0       12.294784   20.899705   13.270303
      2          6           0       11.329163   20.126840   14.137991
      3          6           0        9.969203   20.356782   13.454417
      4          8           0        9.586941   21.515726   13.340606
      5          6           0       11.326602   20.596864   15.596488
      6          6           0       12.727740   20.636155   16.274208
      7          6           0       13.592154   19.512437   15.745040
      8          8           0       14.236864   19.630305   14.702668
      9          8           0       13.488490   18.375735   16.410877
     10          1           0       13.881798   17.630839   15.855330
     11          1           0       13.258176   20.795556   13.649729
     12          1           0       11.669626   19.096464   14.080592
     13          1           0       10.680654   19.895744   16.136054
     14          1           0       10.856186   21.582580   15.660427
     15          1           0       13.236224   21.577886   16.048792
     16          1           0       12.606782   20.562950   17.357098
     17          1           0       12.245856   20.444531   12.338417
     18          1           0       11.989988   21.877156   13.196990
     19          7           0        9.287335   19.278045   13.002179
     20          6           0        9.795069   17.921575   12.838220
     21          6           0       10.931446   17.890914   11.774579
     22          8           0       11.593283   18.903525   11.500571
     23          6           0        8.635112   16.941440   12.591864
     24          6           0        7.528381   16.974189   13.668289
     25          6           0        6.495956   15.880076   13.359733
     26          6           0        8.100081   16.814036   15.085185
     27          1           0        8.438531   19.520664   12.500965
     28          1           0       10.270142   17.607343   13.774530
     29          1           0        9.045730   15.924412   12.583216
     30          1           0        8.202327   17.123285   11.598688
     31          1           0        7.016185   17.945209   13.612304
     32          1           0        5.658738   15.928245   14.063504
     33          1           0        6.089537   15.981899   12.346657
     34          1           0        6.946973   14.883471   13.444207
     35          1           0        7.290158   16.692951   15.811880
     36          1           0        8.759563   15.940505   15.150009
     37          1           0        8.680817   17.692934   15.391171
     38          7           0       11.237528   16.685366   11.264798
     39          6           0       12.309012   16.450690   10.297135
     40          6           0       12.089741   15.029421    9.781560
     41          8           0       11.270017   14.262667   10.242246
     42          6           0       13.741287   16.620765   10.865714
     43          6           0       14.004387   15.851712   12.182695
     44          6           0       13.979926   16.813410   13.383930
     45          7           0       13.894336   16.206431   14.722041
     46          6           0       12.660602   15.603456   15.116057
     47          7           0       11.557475   15.609159   14.459039
     48          7           0       12.753409   15.001244   16.348948
     49          8           0       12.924860   14.736852    8.777249
     50          1           0       12.746188   13.818687    8.495239
     51          1           0       10.625138   15.887676   11.409201
     52          1           0       12.194572   17.141708    9.453893
     53          1           0       13.907003   17.692745   11.013325
     54          1           0       14.430701   16.302096   10.079458
     55          1           0       13.265686   15.052893   12.317916
     56          1           0       14.981110   15.357136   12.141731
     57          1           0       13.136705   17.502572   13.294144
     58          1           0       14.869446   17.448252   13.376414
     59          1           0       14.688160   15.604909   14.936171
     60          1           0       11.708081   15.903602   13.498504
     61          1           0       11.873387   14.636912   16.691877
     62          1           0       13.322381   15.448427   17.056958
 ---------------------------------------------------------------------

 SCF Done:  E(RB3LYP) =  -1447.49497014     A.U. after    1 cycles

 Alpha  occ. eigenvalues --  -19.31413 -19.31064 -19.27043 -19.26158 -19.26004
 Alpha  occ. eigenvalues --  -19.24518 -14.57204 -14.49369 -14.49046 -14.48052
 Alpha  occ. eigenvalues --  -14.45173 -14.40231 -10.45110 -10.44107 -10.42621
 Alpha  occ. eigenvalues --  -10.42218 -10.39874 -10.39052 -10.36326 -10.36283
 Alpha  occ. eigenvalues --  -10.33812 -10.33701 -10.33019 -10.30723 -10.30358
 Alpha  occ. eigenvalues --  -10.30201 -10.28861 -10.26065 -10.25776  -1.22900
 Alpha  occ. eigenvalues --   -1.22602  -1.17825  -1.16735  -1.14073  -1.13838
 Alpha  occ. eigenvalues --   -1.11880  -1.09194  -1.05852  -1.05669  -1.00332
 Alpha  occ. eigenvalues --   -0.95801  -0.94151  -0.92659  -0.91073  -0.87250
 Alpha  occ. eigenvalues --   -0.86915  -0.84816  -0.79161  -0.78820  -0.77463
 Alpha  occ. eigenvalues --   -0.76541  -0.74290  -0.73689  -0.73319  -0.72882
 Alpha  occ. eigenvalues --   -0.71033  -0.70289  -0.70075  -0.68952  -0.66724
 Alpha  occ. eigenvalues --   -0.66391  -0.65019  -0.63700  -0.62915  -0.62478
 Alpha  occ. eigenvalues --   -0.61741  -0.61253  -0.61010  -0.59882  -0.59632
 Alpha  occ. eigenvalues --   -0.59202  -0.58172  -0.58023  -0.57659  -0.56638
 Alpha  occ. eigenvalues --   -0.56460  -0.55675  -0.55031  -0.54771  -0.54108
 Alpha  occ. eigenvalues --   -0.53973  -0.53284  -0.52706  -0.51991  -0.51550
 Alpha  occ. eigenvalues --   -0.51373  -0.50306  -0.50018  -0.49711  -0.49499
 Alpha  occ. eigenvalues --   -0.48975  -0.48407  -0.48286  -0.47237  -0.46972
 Alpha  occ. eigenvalues --   -0.46465  -0.46011  -0.45241  -0.44170  -0.43619
 Alpha  occ. eigenvalues --   -0.43160  -0.42133  -0.41954  -0.40708  -0.40342
 Alpha  occ. eigenvalues --   -0.39572  -0.39453  -0.38751  -0.38490  -0.37701
 Alpha  occ. eigenvalues --   -0.36982  -0.34926
 Alpha virt. eigenvalues --   -0.12876  -0.12302  -0.11386  -0.10588  -0.07422
 Alpha virt. eigenvalues --   -0.06668  -0.05006  -0.03510  -0.03138  -0.02939
 Alpha virt. eigenvalues --   -0.01871  -0.01062  -0.00318  -0.00082   0.00395

 Mulliken charges:
               1
     1  N   -0.761075
     2  C   -0.122406
     3  C    0.622788
     4  O   -0.504253
     5  C   -0.296490
     6  C   -0.361890
     7  C    0.593529
     8  O   -0.511499
     9  O   -0.568031
    10  H    0.454841
    11  H    0.426072
    12  H    0.199139
    13  H    0.203226
    14  H    0.209307
    15  H    0.187171
    16  H    0.212314
    17  H    0.440933
    18  H    0.407251
    19  N   -0.580041
    20  C   -0.102747
    21  C    0.652172
    22  O   -0.582220
    23  C   -0.321144
    24  C   -0.074249
    25  C   -0.450167
    26  C   -0.463080
    27  H    0.359804
    28  H    0.219498
    29  H    0.172211
    30  H    0.158786
    31  H    0.133627
    32  H    0.164968
    33  H    0.151596
    34  H    0.156064
    35  H    0.163110
    36  H    0.177185
    37  H    0.125346
    38  N   -0.634258
    39  C   -0.029217
    40  C    0.594049
    41  O   -0.458127
    42  C   -0.296563
    43  C   -0.290819
    44  C   -0.171747
    45  N   -0.670865
    46  C    0.589488
    47  N   -0.663418
    48  N   -0.736843
    49  O   -0.554274
    50  H    0.437760
    51  H    0.386492
    52  H    0.209674
    53  H    0.174144
    54  H    0.193193
    55  H    0.170346
    56  H    0.167568
    57  H    0.152445
    58  H    0.190817
    59  H    0.351320
    60  H    0.297637
    61  H    0.358956
    62  H    0.340595
 Sum of Mulliken charges =   1.00000

 Dipole moment (field-independent basis, Debye):
    X=             59.0799    Y=             86.5159    Z=             64.4408  Tot=            122.9962
 Quadrupole moment (field-independent basis, Debye-Ang):
   XX=            577.9937   YY=           1416.3681   ZZ=            733.5215
   XY=           1062.5442   XZ=            794.7197   YZ=           1175.9151

 Normal termination of Gaussian 16 at Tue May 24 03:34:11 2022.
