 Gaussian 16, Revision C.01,
 Gaussian 16:  ES64L-G16RevC.01  3-Jul-2019

 ----------------------------------------------------------------------
 # B3LYP/6-31G* empiricaldispersion=gd3 guess=read geom=check nosymm in
 tegral(ultrafinegrid)
 ----------------------------------------------------------------------

 -----------------------------------------------------
 Candidate Structure: Conf:34 Charge calc in gas phase
 -----------------------------------------------------
 Structure from the checkpoint file:  "conf-34.chk"
 Charge =  1 Multiplicity = 1

                          Input orientation:
 ---------------------------------------------------------------------
 Center     Atomic      Atomic             Coordinates (Angstroms)
 Number     Number       Type             X           Y           Z
 ---------------------------------------------------------------------
      1          7           0       14.930594   17.802137   13.255275
      2          6           0       13.977214   18.780613   13.891099
      3          6           0       13.781952   19.852905   12.814051
      4          8           0       14.770323   20.472763   12.435813
      5          6           0       14.569132   19.350668   15.195044
      6          6           0       14.096175   18.580666   16.431969
      7          6           0       14.474627   17.117768   16.454665
      8          8           0       15.195374   16.544559   15.648501
      9          8           0       13.959546   16.493696   17.517333
     10          1           0       14.238835   15.558744   17.476935
     11          1           0       15.249695   17.138668   13.994068
     12          1           0       13.088417   18.191614   14.116274
     13          1           0       14.244549   20.390810   15.296115
     14          1           0       15.662306   19.385705   15.140684
     15          1           0       14.502965   19.034931   17.343979
     16          1           0       13.005805   18.635580   16.517279
     17          1           0       14.406070   17.328251   12.503233
     18          1           0       15.720749   18.319760   12.851448
     19          7           0       12.538722   20.042898   12.296968
     20          6           0       11.364221   19.185982   12.445939
     21          6           0       11.575911   17.850996   11.685145
     22          8           0       12.679499   17.286481   11.707944
     23          6           0       10.083533   19.969535   12.125928
     24          6           0        9.919353   21.281860   12.921659
     25          6           0        8.577962   21.934391   12.559253
     26          6           0       10.032005   21.055889   14.435965
     27          1           0       12.523676   20.720223   11.540692
     28          1           0       11.300019   18.862578   13.490567
     29          1           0        9.226284   19.325366   12.364405
     30          1           0       10.035808   20.184580   11.048758
     31          1           0       10.722286   21.968494   12.621837
     32          1           0        8.470473   22.903415   13.057221
     33          1           0        8.489965   22.100855   11.479430
     34          1           0        7.737149   21.303079   12.873245
     35          1           0        9.813739   21.981083   14.978884
     36          1           0        9.318305   20.294313   14.776514
     37          1           0       11.039370   20.737635   14.729518
     38          7           0       10.493832   17.313219   11.098350
     39          6           0       10.483201   15.998518   10.452241
     40          6           0        9.141147   15.744410    9.761993
     41          8           0        8.799364   14.659444    9.364412
     42          6           0       10.813594   14.845280   11.417952
     43          6           0        9.886765   14.767904   12.642741
     44          6           0       10.496208   13.978608   13.831327
     45          7           0       10.328907   14.607372   15.138849
     46          6           0       10.928569   15.805380   15.470318
     47          7           0       11.824338   16.450878   14.787893
     48          7           0       10.481782   16.318912   16.680405
     49          8           0        8.391377   16.865479    9.626732
     50          1           0        7.570901   16.611867    9.162183
     51          1           0        9.640279   17.850052   11.045974
     52          1           0       11.236574   15.997082    9.652665
     53          1           0       11.851196   14.983488   11.734014
     54          1           0       10.775786   13.920021   10.835885
     55          1           0        9.673408   15.785371   12.994151
     56          1           0        8.924935   14.333301   12.349858
     57          1           0       11.567790   13.814142   13.671135
     58          1           0       10.046055   12.987525   13.907205
     59          1           0        9.434666   14.448354   15.585987
     60          1           0       11.982431   16.027845   13.876104
     61          1           0       11.021484   17.114384   16.993736
     62          1           0       10.347352   15.641647   17.421724
 ---------------------------------------------------------------------

 SCF Done:  E(RB3LYP) =  -1447.49381759     A.U. after    1 cycles

 Alpha  occ. eigenvalues --  -19.31741 -19.31220 -19.27025 -19.25062 -19.24832
 Alpha  occ. eigenvalues --  -19.23590 -14.55416 -14.48978 -14.48466 -14.45650
 Alpha  occ. eigenvalues --  -14.44517 -14.39655 -10.45025 -10.43342 -10.41891
 Alpha  occ. eigenvalues --  -10.41224 -10.39182 -10.36753 -10.35956 -10.35703
 Alpha  occ. eigenvalues --  -10.32549 -10.32365 -10.32304 -10.30711 -10.29439
 Alpha  occ. eigenvalues --  -10.29341 -10.28871 -10.27225 -10.26428  -1.23134
 Alpha  occ. eigenvalues --   -1.21836  -1.16864  -1.15810  -1.14143  -1.12864
 Alpha  occ. eigenvalues --   -1.10464  -1.08276  -1.05478  -1.04831  -0.99121
 Alpha  occ. eigenvalues --   -0.94693  -0.93134  -0.92401  -0.90621  -0.86687
 Alpha  occ. eigenvalues --   -0.85774  -0.84278  -0.79016  -0.78814  -0.78149
 Alpha  occ. eigenvalues --   -0.76609  -0.74111  -0.72222  -0.71896  -0.71422
 Alpha  occ. eigenvalues --   -0.69576  -0.69369  -0.68473  -0.68230  -0.66898
 Alpha  occ. eigenvalues --   -0.65660  -0.65235  -0.63211  -0.62353  -0.62098
 Alpha  occ. eigenvalues --   -0.61373  -0.60647  -0.59863  -0.59779  -0.58944
 Alpha  occ. eigenvalues --   -0.58730  -0.57923  -0.57045  -0.56935  -0.56220
 Alpha  occ. eigenvalues --   -0.55389  -0.54378  -0.54017  -0.53520  -0.53117
 Alpha  occ. eigenvalues --   -0.52903  -0.52637  -0.52372  -0.51664  -0.51271
 Alpha  occ. eigenvalues --   -0.51080  -0.50667  -0.49519  -0.49011  -0.48821
 Alpha  occ. eigenvalues --   -0.48663  -0.48004  -0.47597  -0.47282  -0.46547
 Alpha  occ. eigenvalues --   -0.46022  -0.45184  -0.44305  -0.44245  -0.43599
 Alpha  occ. eigenvalues --   -0.42997  -0.42827  -0.42655  -0.40774  -0.39591
 Alpha  occ. eigenvalues --   -0.38702  -0.38511  -0.38260  -0.37351  -0.36653
 Alpha  occ. eigenvalues --   -0.35839  -0.33523
 Alpha virt. eigenvalues --   -0.12098  -0.11539  -0.10448  -0.09406  -0.05873
 Alpha virt. eigenvalues --   -0.05081  -0.04579  -0.03708  -0.03059  -0.02668
 Alpha virt. eigenvalues --   -0.01799  -0.01355  -0.00438  -0.00331   0.00645

 Mulliken charges:
               1
     1  N   -0.768867
     2  C   -0.127892
     3  C    0.606654
     4  O   -0.504238
     5  C   -0.292958
     6  C   -0.377439
     7  C    0.650290
     8  O   -0.511946
     9  O   -0.549065
    10  H    0.432064
    11  H    0.439517
    12  H    0.252946
    13  H    0.198237
    14  H    0.185939
    15  H    0.213803
    16  H    0.198808
    17  H    0.432317
    18  H    0.401299
    19  N   -0.585937
    20  C   -0.090876
    21  C    0.676735
    22  O   -0.585319
    23  C   -0.329772
    24  C   -0.070992
    25  C   -0.448696
    26  C   -0.455356
    27  H    0.353783
    28  H    0.213116
    29  H    0.154408
    30  H    0.159163
    31  H    0.141270
    32  H    0.167046
    33  H    0.153002
    34  H    0.149524
    35  H    0.170396
    36  H    0.150604
    37  H    0.130874
    38  N   -0.633786
    39  C   -0.038474
    40  C    0.594152
    41  O   -0.433724
    42  C   -0.292060
    43  C   -0.293943
    44  C   -0.168659
    45  N   -0.588029
    46  C    0.619955
    47  N   -0.736697
    48  N   -0.750335
    49  O   -0.585993
    50  H    0.436300
    51  H    0.380958
    52  H    0.214678
    53  H    0.165293
    54  H    0.192602
    55  H    0.148605
    56  H    0.171969
    57  H    0.167524
    58  H    0.180332
    59  H    0.337459
    60  H    0.299470
    61  H    0.342104
    62  H    0.337857
 Sum of Mulliken charges =   1.00000

 Dipole moment (field-independent basis, Debye):
    X=             55.8827    Y=             83.8355    Z=             66.8855  Tot=            120.9336
 Quadrupole moment (field-independent basis, Debye-Ang):
   XX=            515.7062   YY=           1314.3798   ZZ=            797.2619
   XY=            971.8672   XZ=            795.4812   YZ=           1156.5053

 Normal termination of Gaussian 16 at Tue May 24 03:34:02 2022.
