 Gaussian 16, Revision C.01,
 Gaussian 16:  ES64L-G16RevC.01  3-Jul-2019

 ----------------------------------------------------------------------
 # B3LYP/6-31G* empiricaldispersion=gd3 guess=read geom=check nosymm in
 tegral(ultrafinegrid)
 ----------------------------------------------------------------------

 ------------------------------------------------------
 Candidate Structure: Conf:841 Charge calc in gas phase
 ------------------------------------------------------
 Structure from the checkpoint file:  "conf-841.chk"
 Charge =  1 Multiplicity = 1

                          Input orientation:
 ---------------------------------------------------------------------
 Center     Atomic      Atomic             Coordinates (Angstroms)
 Number     Number       Type             X           Y           Z
 ---------------------------------------------------------------------
      1          7           0        9.096977   19.617949   14.449041
      2          6           0       10.594525   19.822756   14.506363
      3          6           0       10.869776   19.833678   16.025834
      4          8           0       10.231180   20.647028   16.686854
      5          6           0       11.060472   21.142637   13.870893
      6          6           0       10.509081   21.473330   12.453547
      7          6           0       10.229340   20.231306   11.634579
      8          8           0        9.142682   19.653450   11.706873
      9          8           0       11.247078   19.776400   10.929883
     10          1           0       11.019795   18.869724   10.507265
     11          1           0        8.653569   20.296120   15.083058
     12          1           0       11.022967   18.974724   13.973959
     13          1           0       12.153080   21.077148   13.831619
     14          1           0       10.814019   21.966690   14.546490
     15          1           0        9.561233   22.011914   12.538140
     16          1           0       11.222561   22.120997   11.938865
     17          1           0        8.748292   19.701329   13.469194
     18          1           0        8.927155   18.662104   14.810084
     19          7           0       11.776653   18.984694   16.556896
     20          6           0       12.344675   17.774580   15.970280
     21          6           0       11.233596   16.884760   15.333081
     22          8           0       10.031076   17.136610   15.476872
     23          6           0       13.137200   17.061757   17.097731
     24          6           0       14.070096   15.892082   16.724666
     25          6           0       15.115495   16.280289   15.666089
     26          6           0       14.765191   15.390876   18.001261
     27          1           0       11.814950   19.056045   17.569121
     28          1           0       13.040699   18.059149   15.171136
     29          1           0       12.413703   16.722157   17.850880
     30          1           0       13.753936   17.837194   17.572595
     31          1           0       13.462739   15.061516   16.342161
     32          1           0       15.705814   17.141362   16.003344
     33          1           0       15.807437   15.450747   15.489978
     34          1           0       14.680749   16.540506   14.691878
     35          1           0       15.409742   16.169120   18.428168
     36          1           0       14.037343   15.097234   18.765842
     37          1           0       15.392375   14.520756   17.782620
     38          7           0       11.731878   15.883293   14.584532
     39          6           0       11.017935   14.919958   13.738381
     40          6           0       11.963755   14.403533   12.643703
     41          8           0       11.603491   13.584558   11.829891
     42          6           0        9.811912   15.526770   12.980250
     43          6           0       10.242979   16.694839   12.064275
     44          6           0       10.069439   16.450335   10.551976
     45          7           0       11.004630   17.306844    9.782440
     46          6           0       12.380356   16.856731    9.690343
     47          7           0       12.828195   15.681749    9.944034
     48          7           0       13.205640   17.859039    9.265050
     49          8           0       13.140962   15.056115   12.605466
     50          1           0       13.496307   15.011005   11.678736
     51          1           0       12.737852   15.843325   14.492838
     52          1           0       10.679258   14.069264   14.339154
     53          1           0        9.072044   15.848302   13.712356
     54          1           0        9.371924   14.708986   12.402225
     55          1           0        9.682131   17.593475   12.317351
     56          1           0       11.298547   16.930655   12.248703
     57          1           0        9.059143   16.726113   10.239381
     58          1           0       10.200373   15.389937   10.307405
     59          1           0       10.651094   17.513107    8.847780
     60          1           0       12.086342   14.989026   10.029314
     61          1           0       14.181671   17.613257    9.166583
     62          1           0       13.004498   18.819672    9.505606
 ---------------------------------------------------------------------

 SCF Done:  E(RB3LYP) =  -1447.48093483     A.U. after    2 cycles

 Alpha  occ. eigenvalues --  -19.31442 -19.30075 -19.27501 -19.25593 -19.25220
 Alpha  occ. eigenvalues --  -19.24762 -14.57807 -14.49549 -14.49274 -14.48335
 Alpha  occ. eigenvalues --  -14.45934 -14.40786 -10.45676 -10.43258 -10.42929
 Alpha  occ. eigenvalues --  -10.42594 -10.40478 -10.39955 -10.37157 -10.36039
 Alpha  occ. eigenvalues --  -10.34445 -10.33697 -10.33479 -10.31208 -10.30304
 Alpha  occ. eigenvalues --  -10.30207 -10.30131 -10.27967 -10.26774  -1.23230
 Alpha  occ. eigenvalues --   -1.21204  -1.18139  -1.16803  -1.14475  -1.12519
 Alpha  occ. eigenvalues --   -1.12347  -1.09274  -1.06170  -1.05962  -1.00677
 Alpha  occ. eigenvalues --   -0.96133  -0.94607  -0.93149  -0.91375  -0.87811
 Alpha  occ. eigenvalues --   -0.87184  -0.85087  -0.79493  -0.79242  -0.78653
 Alpha  occ. eigenvalues --   -0.76819  -0.74680  -0.73859  -0.73193  -0.72476
 Alpha  occ. eigenvalues --   -0.71381  -0.70398  -0.69851  -0.68951  -0.67244
 Alpha  occ. eigenvalues --   -0.66698  -0.65747  -0.63822  -0.63221  -0.62757
 Alpha  occ. eigenvalues --   -0.62448  -0.62314  -0.61864  -0.60386  -0.59780
 Alpha  occ. eigenvalues --   -0.59008  -0.58946  -0.58338  -0.57510  -0.57455
 Alpha  occ. eigenvalues --   -0.57145  -0.56000  -0.55482  -0.54828  -0.54232
 Alpha  occ. eigenvalues --   -0.53891  -0.53466  -0.53333  -0.52848  -0.52038
 Alpha  occ. eigenvalues --   -0.50767  -0.50421  -0.49996  -0.49850  -0.49701
 Alpha  occ. eigenvalues --   -0.49151  -0.48963  -0.48449  -0.48139  -0.46971
 Alpha  occ. eigenvalues --   -0.46526  -0.46499  -0.45871  -0.44398  -0.44006
 Alpha  occ. eigenvalues --   -0.43479  -0.43399  -0.42530  -0.41219  -0.40046
 Alpha  occ. eigenvalues --   -0.39674  -0.39554  -0.39075  -0.38466  -0.37683
 Alpha  occ. eigenvalues --   -0.37556  -0.35337
 Alpha virt. eigenvalues --   -0.13666  -0.12355  -0.11845  -0.10830  -0.08467
 Alpha virt. eigenvalues --   -0.07128  -0.05098  -0.03641  -0.02855  -0.02299
 Alpha virt. eigenvalues --   -0.01535  -0.00621  -0.00446   0.00080   0.00157

 Mulliken charges:
               1
     1  N   -0.772762
     2  C   -0.116900
     3  C    0.629217
     4  O   -0.505555
     5  C   -0.294501
     6  C   -0.363882
     7  C    0.594188
     8  O   -0.505416
     9  O   -0.592316
    10  H    0.467225
    11  H    0.411809
    12  H    0.198476
    13  H    0.194842
    14  H    0.213489
    15  H    0.194815
    16  H    0.209737
    17  H    0.432569
    18  H    0.439049
    19  N   -0.602519
    20  C   -0.061523
    21  C    0.628006
    22  O   -0.566541
    23  C   -0.301968
    24  C   -0.102922
    25  C   -0.468950
    26  C   -0.450336
    27  H    0.363452
    28  H    0.177202
    29  H    0.170569
    30  H    0.168759
    31  H    0.140827
    32  H    0.159642
    33  H    0.178114
    34  H    0.138185
    35  H    0.156733
    36  H    0.158796
    37  H    0.167850
    38  N   -0.631259
    39  C   -0.031874
    40  C    0.598616
    41  O   -0.453144
    42  C   -0.297532
    43  C   -0.318571
    44  C   -0.158116
    45  N   -0.692339
    46  C    0.606289
    47  N   -0.683365
    48  N   -0.739140
    49  O   -0.605387
    50  H    0.454136
    51  H    0.392302
    52  H    0.210527
    53  H    0.184891
    54  H    0.192556
    55  H    0.159725
    56  H    0.149601
    57  H    0.180572
    58  H    0.182662
    59  H    0.365866
    60  H    0.332159
    61  H    0.361959
    62  H    0.351403
 Sum of Mulliken charges =   1.00000

 Dipole moment (field-independent basis, Debye):
    X=             54.7591    Y=             89.4470    Z=             64.8235  Tot=            123.2940
 Quadrupole moment (field-independent basis, Debye-Ang):
   XX=            476.9655   YY=           1507.2538   ZZ=            736.7182
   XY=           1013.4348   XZ=            749.8636   YZ=           1193.1412

 Normal termination of Gaussian 16 at Tue May 24 03:34:10 2022.
