 Gaussian 16, Revision C.01,
 Gaussian 16:  ES64L-G16RevC.01  3-Jul-2019

 ----------------------------------------------------------------------
 # B3LYP/6-31G* empiricaldispersion=gd3 guess=read geom=check nosymm in
 tegral(ultrafinegrid)
 ----------------------------------------------------------------------

 ------------------------------------------------------
 Candidate Structure: Conf:879 Charge calc in gas phase
 ------------------------------------------------------
 Structure from the checkpoint file:  "conf-879.chk"
 Charge =  1 Multiplicity = 1

                          Input orientation:
 ---------------------------------------------------------------------
 Center     Atomic      Atomic             Coordinates (Angstroms)
 Number     Number       Type             X           Y           Z
 ---------------------------------------------------------------------
      1          7           0        8.888028   17.092448   12.099813
      2          6           0       10.137396   16.896842   11.282854
      3          6           0       10.176543   18.093494   10.324060
      4          8           0        9.254230   18.221841    9.529877
      5          6           0       10.107078   15.555191   10.535261
      6          6           0        9.639565   14.340862   11.379226
      7          6           0       10.196753   14.330751   12.808695
      8          8           0        9.671961   15.200655   13.615751
      9          8           0       11.107638   13.548081   13.117045
     10          1           0        8.064067   17.085032   11.491116
     11          1           0       10.945395   16.885568   12.013202
     12          1           0       11.125025   15.380216   10.169146
     13          1           0        9.464646   15.660302    9.655315
     14          1           0        8.544907   14.339534   11.445413
     15          1           0        9.939575   13.423174   10.869983
     16          1           0        8.927333   16.283147   12.838395
     17          1           0        8.949934   18.001670   12.577791
     18          7           0       11.198428   18.987488   10.416880
     19          6           0       12.240539   19.105492   11.427501
     20          6           0       11.661313   19.012570   12.863758
     21          8           0       10.487031   19.256800   13.112604
     22          6           0       12.934225   20.476726   11.208123
     23          6           0       14.182180   20.801627   12.051687
     24          6           0       15.325996   19.798057   11.830384
     25          6           0       14.656134   22.224787   11.715371
     26          1           0       11.077910   19.776321    9.790199
     27          1           0       12.975504   18.301362   11.292504
     28          1           0       12.175867   21.254261   11.367646
     29          1           0       13.220258   20.517608   10.148259
     30          1           0       13.901821   20.799200   13.115385
     31          1           0       15.621056   19.778151   10.774455
     32          1           0       16.206546   20.078705   12.416807
     33          1           0       15.071113   18.764525   12.105809
     34          1           0       14.955144   22.297836   10.662734
     35          1           0       13.866438   22.962581   11.894592
     36          1           0       15.520705   22.500443   12.327701
     37          7           0       12.586717   18.589653   13.788458
     38          6           0       12.550334   18.747472   15.260345
     39          6           0       13.285787   17.579841   15.937870
     40          8           0       13.445042   17.562486   17.138433
     41          6           0       11.180966   18.996554   15.927989
     42          6           0       10.109230   17.894046   15.910615
     43          6           0       10.376269   16.631742   16.752209
     44          7           0       11.084690   15.617914   15.959042
     45          6           0       11.891374   14.660916   16.438679
     46          7           0       12.503863   14.812079   17.638084
     47          7           0       12.064554   13.548784   15.722298
     48          8           0       13.776849   16.602388   15.155463
     49          1           0       13.344654   16.650336   14.281641
     50          1           0       13.537613   18.616232   13.433265
     51          1           0       13.162811   19.626960   15.503666
     52          1           0       10.758292   19.897781   15.480243
     53          1           0       11.424849   19.237593   16.968355
     54          1           0        9.194716   18.356561   16.299140
     55          1           0        9.884483   17.600403   14.881375
     56          1           0        9.419883   16.205853   17.080471
     57          1           0       10.945365   16.879105   17.649654
     58          1           0       10.594330   15.385493   15.073227
     59          1           0       12.807651   15.752969   17.878589
     60          1           0       13.154066   14.089525   17.917323
     61          1           0       12.846710   12.942736   15.926636
     62          1           0       11.633758   13.465068   14.777824
 ---------------------------------------------------------------------

 SCF Done:  E(RB3LYP) =  -1447.51230680     A.U. after    1 cycles

 Alpha  occ. eigenvalues --  -19.32375 -19.27018 -19.26514 -19.23935 -19.22667
 Alpha  occ. eigenvalues --  -19.21285 -14.54360 -14.51522 -14.48883 -14.47793
 Alpha  occ. eigenvalues --  -14.47152 -14.47017 -10.45074 -10.44237 -10.44041
 Alpha  occ. eigenvalues --  -10.41633 -10.39440 -10.37898 -10.37671 -10.37619
 Alpha  occ. eigenvalues --  -10.33752 -10.31860 -10.31625 -10.31272 -10.31248
 Alpha  occ. eigenvalues --  -10.30353 -10.29575 -10.29178 -10.27593  -1.23275
 Alpha  occ. eigenvalues --   -1.18839  -1.16356  -1.15133  -1.14936  -1.12595
 Alpha  occ. eigenvalues --   -1.09921  -1.07532  -1.05947  -1.05483  -1.02138
 Alpha  occ. eigenvalues --   -1.00659  -0.93848  -0.92213  -0.91391  -0.88163
 Alpha  occ. eigenvalues --   -0.86199  -0.83883  -0.80844  -0.79628  -0.77635
 Alpha  occ. eigenvalues --   -0.75570  -0.74937  -0.74412  -0.73163  -0.72033
 Alpha  occ. eigenvalues --   -0.70553  -0.70096  -0.68952  -0.68665  -0.67500
 Alpha  occ. eigenvalues --   -0.67117  -0.66890  -0.65007  -0.63463  -0.63187
 Alpha  occ. eigenvalues --   -0.61737  -0.61113  -0.60948  -0.60027  -0.59166
 Alpha  occ. eigenvalues --   -0.58813  -0.58176  -0.57541  -0.56966  -0.56576
 Alpha  occ. eigenvalues --   -0.56263  -0.55645  -0.55470  -0.54692  -0.54393
 Alpha  occ. eigenvalues --   -0.53908  -0.53318  -0.53039  -0.52673  -0.52205
 Alpha  occ. eigenvalues --   -0.51414  -0.50974  -0.50757  -0.50354  -0.49960
 Alpha  occ. eigenvalues --   -0.49062  -0.48419  -0.47822  -0.47007  -0.46558
 Alpha  occ. eigenvalues --   -0.46465  -0.46029  -0.45675  -0.44932  -0.44555
 Alpha  occ. eigenvalues --   -0.44416  -0.44226  -0.42396  -0.40592  -0.39610
 Alpha  occ. eigenvalues --   -0.39088  -0.38244  -0.37950  -0.37779  -0.37172
 Alpha  occ. eigenvalues --   -0.36844  -0.35228
 Alpha virt. eigenvalues --   -0.13859  -0.12621  -0.11472  -0.09475  -0.08008
 Alpha virt. eigenvalues --   -0.07031  -0.05167  -0.04214  -0.03840  -0.02327
 Alpha virt. eigenvalues --   -0.02210  -0.00780  -0.00160   0.00360   0.00836

 Mulliken charges:
               1
     1  N   -0.780635
     2  C   -0.104287
     3  C    0.624602
     4  O   -0.495764
     5  C   -0.294733
     6  C   -0.368103
     7  C    0.619043
     8  O   -0.652004
     9  O   -0.538795
    10  H    0.398271
    11  H    0.177694
    12  H    0.182272
    13  H    0.200755
    14  H    0.165466
    15  H    0.198268
    16  H    0.447386
    17  H    0.422426
    18  N   -0.613905
    19  C   -0.037984
    20  C    0.619591
    21  O   -0.527142
    22  C   -0.305444
    23  C   -0.106325
    24  C   -0.465068
    25  C   -0.448705
    26  H    0.360009
    27  H    0.172290
    28  H    0.176309
    29  H    0.174374
    30  H    0.125708
    31  H    0.173342
    32  H    0.179686
    33  H    0.123511
    34  H    0.162182
    35  H    0.161261
    36  H    0.167891
    37  N   -0.674882
    38  C   -0.060093
    39  C    0.640878
    40  O   -0.474962
    41  C   -0.275705
    42  C   -0.291289
    43  C   -0.152067
    44  N   -0.670165
    45  C    0.761183
    46  N   -0.752981
    47  N   -0.788068
    48  O   -0.566685
    49  H    0.427174
    50  H    0.358735
    51  H    0.212827
    52  H    0.187950
    53  H    0.185262
    54  H    0.172570
    55  H    0.146165
    56  H    0.185732
    57  H    0.182695
    58  H    0.418767
    59  H    0.396680
    60  H    0.357143
    61  H    0.353696
    62  H    0.426001
 Sum of Mulliken charges =   1.00000

 Dipole moment (field-independent basis, Debye):
    X=             57.6679    Y=             84.5086    Z=             65.9156  Tot=            121.7053
 Quadrupole moment (field-independent basis, Debye-Ang):
   XX=            545.4544   YY=           1346.2325   ZZ=            762.0728
   XY=           1021.4750   XZ=            789.9034   YZ=           1141.4743

 Normal termination of Gaussian 16 at Tue May 24 03:34:04 2022.
