 Gaussian 16, Revision C.01,
 Gaussian 16:  ES64L-G16RevC.01  3-Jul-2019

 ----------------------------------------------------------------------
 # B3LYP/6-31G* empiricaldispersion=gd3 guess=read geom=check nosymm in
 tegral(ultrafinegrid)
 ----------------------------------------------------------------------

 ------------------------------------------------------
 Candidate Structure: Conf:472 Charge calc in gas phase
 ------------------------------------------------------
 Structure from the checkpoint file:  "conf-472.chk"
 Charge =  1 Multiplicity = 1

                          Input orientation:
 ---------------------------------------------------------------------
 Center     Atomic      Atomic             Coordinates (Angstroms)
 Number     Number       Type             X           Y           Z
 ---------------------------------------------------------------------
      1          7           0       12.698196   16.792563   10.701897
      2          6           0       12.874921   15.720453   11.745593
      3          6           0       14.382889   15.627170   11.973185
      4          8           0       15.102367   15.310240   11.035958
      5          6           0       12.182402   14.429031   11.271333
      6          6           0       10.761129   14.305802   11.871181
      7          6           0       10.059799   15.651112   12.108047
      8          8           0       10.126774   16.551063   11.204490
      9          8           0        9.463002   15.806541   13.208664
     10          1           0       13.040008   17.688509   11.087792
     11          1           0       12.352711   16.091509   12.622564
     12          1           0       12.783288   13.564432   11.566001
     13          1           0       12.159032   14.413505   10.176489
     14          1           0       10.129531   13.701418   11.209911
     15          1           0       10.798554   13.791140   12.834694
     16          1           0       13.244678   16.547034    9.868536
     17          1           0       11.656212   16.834498   10.528692
     18          7           0       14.836091   15.947731   13.215063
     19          6           0       14.090290   16.575181   14.305328
     20          6           0       13.250670   17.779347   13.800768
     21          8           0       13.608546   18.439063   12.823919
     22          6           0       15.111627   17.061507   15.361529
     23          6           0       14.537113   17.650940   16.664381
     24          6           0       13.698096   16.634022   17.454201
     25          6           0       15.692191   18.174923   17.531964
     26          1           0       15.848346   15.951089   13.284183
     27          1           0       13.423037   15.833373   14.761942
     28          1           0       15.754549   17.806730   14.875311
     29          1           0       15.746539   16.202472   15.618422
     30          1           0       13.901734   18.511790   16.409638
     31          1           0       14.300662   15.755440   17.714833
     32          1           0       13.333592   17.075586   18.387162
     33          1           0       12.819132   16.268807   16.906168
     34          1           0       15.311148   18.632608   18.450649
     35          1           0       16.365248   17.358302   17.820411
     36          1           0       16.283664   18.928046   16.999633
     37          7           0       12.102972   17.993381   14.503636
     38          6           0       11.343660   19.252160   14.640251
     39          6           0        9.869190   18.997200   15.005104
     40          8           0        9.170666   19.948046   15.287973
     41          6           0       11.472309   20.282326   13.499720
     42          6           0       10.899566   19.940726   12.114344
     43          6           0        9.369138   20.013394   11.957687
     44          7           0        8.739267   18.747814   12.339198
     45          6           0        7.567132   18.573312   12.946763
     46          7           0        6.853457   19.620325   13.422788
     47          7           0        7.070539   17.325497   13.033108
     48          8           0        9.410584   17.743299   15.098238
     49          1           0        9.752148   17.104246   14.417259
     50          1           0       11.972127   17.378673   15.300000
     51          1           0       11.735485   19.758943   15.534201
     52          1           0       12.530737   20.519797   13.387117
     53          1           0       10.978721   21.182901   13.880215
     54          1           0       11.330466   20.659048   11.407927
     55          1           0       11.241628   18.952410   11.794375
     56          1           0        9.112343   20.226723   10.912923
     57          1           0        8.973889   20.834809   12.559437
     58          1           0        9.171635   17.910105   11.910177
     59          1           0        7.385839   20.421603   13.738645
     60          1           0        6.089419   19.399655   14.048614
     61          1           0        6.329668   17.160873   13.701556
     62          1           0        7.766642   16.572285   12.974538
 ---------------------------------------------------------------------

 SCF Done:  E(RB3LYP) =  -1447.51203552     A.U. after    1 cycles

 Alpha  occ. eigenvalues --  -19.28995 -19.25953 -19.24574 -19.24008 -19.23594
 Alpha  occ. eigenvalues --  -19.22746 -14.56192 -14.50405 -14.48958 -14.48704
 Alpha  occ. eigenvalues --  -14.48495 -14.47761 -10.45118 -10.43341 -10.43122
 Alpha  occ. eigenvalues --  -10.41619 -10.40948 -10.38037 -10.36984 -10.36680
 Alpha  occ. eigenvalues --  -10.34804 -10.32210 -10.31089 -10.30881 -10.30770
 Alpha  occ. eigenvalues --  -10.30369 -10.30174 -10.28196 -10.26898  -1.20490
 Alpha  occ. eigenvalues --   -1.17908  -1.16515  -1.16151  -1.13679  -1.12345
 Alpha  occ. eigenvalues --   -1.11333  -1.07017  -1.06476  -1.05291  -1.03329
 Alpha  occ. eigenvalues --   -1.01751  -0.93217  -0.92321  -0.91751  -0.87955
 Alpha  occ. eigenvalues --   -0.85892  -0.84143  -0.80843  -0.78771  -0.77232
 Alpha  occ. eigenvalues --   -0.76539  -0.75435  -0.73708  -0.72921  -0.72513
 Alpha  occ. eigenvalues --   -0.70901  -0.70483  -0.69417  -0.68783  -0.67541
 Alpha  occ. eigenvalues --   -0.67097  -0.66535  -0.64173  -0.63472  -0.62560
 Alpha  occ. eigenvalues --   -0.62134  -0.61501  -0.61057  -0.60412  -0.60273
 Alpha  occ. eigenvalues --   -0.58709  -0.58073  -0.57601  -0.56477  -0.56298
 Alpha  occ. eigenvalues --   -0.55775  -0.55478  -0.54998  -0.54732  -0.54709
 Alpha  occ. eigenvalues --   -0.53849  -0.53636  -0.53181  -0.52385  -0.52205
 Alpha  occ. eigenvalues --   -0.51736  -0.51266  -0.50418  -0.49609  -0.49174
 Alpha  occ. eigenvalues --   -0.48988  -0.48317  -0.47656  -0.47205  -0.46991
 Alpha  occ. eigenvalues --   -0.46419  -0.46077  -0.44970  -0.44081  -0.43611
 Alpha  occ. eigenvalues --   -0.43557  -0.42718  -0.40904  -0.39737  -0.39699
 Alpha  occ. eigenvalues --   -0.39172  -0.38426  -0.38163  -0.37901  -0.37760
 Alpha  occ. eigenvalues --   -0.37096  -0.36665
 Alpha virt. eigenvalues --   -0.13083  -0.11613  -0.11326  -0.10102  -0.09220
 Alpha virt. eigenvalues --   -0.06386  -0.05431  -0.04598  -0.02670  -0.02107
 Alpha virt. eigenvalues --   -0.01844  -0.01532  -0.01086   0.00108   0.00176

 Mulliken charges:
               1
     1  N   -0.773393
     2  C   -0.131998
     3  C    0.620198
     4  O   -0.492762
     5  C   -0.287011
     6  C   -0.356660
     7  C    0.607237
     8  O   -0.617180
     9  O   -0.597816
    10  H    0.432538
    11  H    0.204330
    12  H    0.203730
    13  H    0.177156
    14  H    0.197967
    15  H    0.181969
    16  H    0.405577
    17  H    0.440418
    18  N   -0.607524
    19  C   -0.030151
    20  C    0.594719
    21  O   -0.549097
    22  C   -0.307232
    23  C   -0.100556
    24  C   -0.461267
    25  C   -0.447488
    26  H    0.360640
    27  H    0.173180
    28  H    0.175293
    29  H    0.170961
    30  H    0.128558
    31  H    0.168458
    32  H    0.175918
    33  H    0.125134
    34  H    0.165746
    35  H    0.159678
    36  H    0.158550
    37  N   -0.623106
    38  C   -0.061756
    39  C    0.623839
    40  O   -0.482228
    41  C   -0.276192
    42  C   -0.288487
    43  C   -0.147910
    44  N   -0.644538
    45  C    0.747506
    46  N   -0.724483
    47  N   -0.758179
    48  O   -0.617936
    49  H    0.453817
    50  H    0.355338
    51  H    0.209079
    52  H    0.190462
    53  H    0.180154
    54  H    0.173479
    55  H    0.130181
    56  H    0.189595
    57  H    0.172905
    58  H    0.418152
    59  H    0.384363
    60  H    0.363703
    61  H    0.356135
    62  H    0.408286
 Sum of Mulliken charges =   1.00000

 Dipole moment (field-independent basis, Debye):
    X=             53.6825    Y=             84.9063    Z=             64.0596  Tot=            119.1407
 Quadrupole moment (field-independent basis, Debye-Ang):
   XX=            475.5824   YY=           1349.6519   ZZ=            706.7792
   XY=            938.4819   XZ=            727.6982   YZ=           1131.3420

 Normal termination of Gaussian 16 at Tue May 24 03:32:31 2022.
