 Gaussian 16, Revision C.01,
 Gaussian 16:  ES64L-G16RevC.01  3-Jul-2019

 ----------------------------------------------------------------------
 # B3LYP/6-31G* empiricaldispersion=gd3 guess=read geom=check nosymm in
 tegral(ultrafinegrid)
 ----------------------------------------------------------------------

 ------------------------------------------------------
 Candidate Structure: Conf:684 Charge calc in gas phase
 ------------------------------------------------------
 Structure from the checkpoint file:  "conf-684.chk"
 Charge =  1 Multiplicity = 1

                          Input orientation:
 ---------------------------------------------------------------------
 Center     Atomic      Atomic             Coordinates (Angstroms)
 Number     Number       Type             X           Y           Z
 ---------------------------------------------------------------------
      1          7           0        9.049404   16.565326   14.559464
      2          6           0        9.722154   15.913482   13.381425
      3          6           0        8.873300   16.311248   12.167457
      4          8           0        7.694513   15.984150   12.156738
      5          6           0        9.811196   14.392470   13.568316
      6          6           0       10.303997   13.935777   14.967019
      7          6           0       11.450155   14.792513   15.523142
      8          8           0       11.110546   15.973079   15.939687
      9          8           0       12.610728   14.355470   15.520526
     10          1           0        9.002338   17.577875   14.384848
     11          1           0       10.726113   16.334320   13.375200
     12          1           0       10.496450   14.023357   12.796845
     13          1           0        8.829756   13.954295   13.359920
     14          1           0        9.473259   13.979294   15.681483
     15          1           0       10.629873   12.895974   14.903355
     16          1           0        8.100657   16.196896   14.674926
     17          1           0        9.732074   16.366912   15.391928
     18          7           0        9.448833   17.044759   11.174864
     19          6           0       10.756250   17.674692   11.159907
     20          6           0       10.975930   18.574150   12.411221
     21          8           0       10.068170   18.862890   13.180651
     22          6           0       10.908748   18.498067    9.860117
     23          6           0       10.802557   17.690256    8.548888
     24          6           0       10.950528   18.645965    7.355588
     25          6           0       11.835316   16.557393    8.481282
     26          1           0        8.783106   17.337076   10.468049
     27          1           0       11.535165   16.900791   11.176341
     28          1           0       11.886124   18.998604    9.870936
     29          1           0       10.155744   19.297668    9.872511
     30          1           0        9.801451   17.239862    8.493230
     31          1           0       11.946562   19.106444    7.343713
     32          1           0       10.822234   18.107545    6.411273
     33          1           0       10.206856   19.450342    7.387722
     34          1           0       11.781388   16.047552    7.514304
     35          1           0       12.855625   16.948797    8.590395
     36          1           0       11.672643   15.797829    9.254790
     37          7           0       12.292347   18.926091   12.586517
     38          6           0       12.878608   19.925669   13.507323
     39          6           0       14.227778   19.421374   14.048366
     40          8           0       14.914423   20.124669   14.756505
     41          6           0       11.995605   20.462135   14.656293
     42          6           0       11.568895   19.533161   15.805988
     43          6           0       12.665211   19.025705   16.761589
     44          7           0       13.216468   17.748218   16.286396
     45          6           0       14.445794   17.277205   16.545042
     46          7           0       15.457606   18.122478   16.855168
     47          7           0       14.647983   15.959457   16.507313
     48          8           0       14.632299   18.191371   13.687495
     49          1           0       13.866753   17.703645   13.328571
     50          1           0       12.859472   18.792379   11.754660
     51          1           0       13.141204   20.804284   12.902921
     52          1           0       11.097613   20.888673   14.205258
     53          1           0       12.573057   21.294275   15.073399
     54          1           0       10.855975   20.110556   16.405855
     55          1           0       11.010289   18.678210   15.415923
     56          1           0       12.231569   18.863989   17.756355
     57          1           0       13.458298   19.766580   16.870786
     58          1           0       12.484719   17.023046   16.154095
     59          1           0       15.458033   19.029300   16.392805
     60          1           0       16.378047   17.719722   16.969877
     61          1           0       15.590522   15.599640   16.455207
     62          1           0       13.874683   15.315923   16.235563
 ---------------------------------------------------------------------

 SCF Done:  E(RB3LYP) =  -1447.51304641     A.U. after    2 cycles

 Alpha  occ. eigenvalues --  -19.32447 -19.27122 -19.26573 -19.24002 -19.22579
 Alpha  occ. eigenvalues --  -19.21231 -14.54384 -14.51704 -14.48907 -14.47785
 Alpha  occ. eigenvalues --  -14.47133 -14.47029 -10.45103 -10.44240 -10.44100
 Alpha  occ. eigenvalues --  -10.41666 -10.39382 -10.37980 -10.37627 -10.37605
 Alpha  occ. eigenvalues --  -10.33697 -10.31999 -10.31686 -10.31305 -10.30316
 Alpha  occ. eigenvalues --  -10.30294 -10.29570 -10.27745 -10.27015  -1.23366
 Alpha  occ. eigenvalues --   -1.18921  -1.16399  -1.15058  -1.14993  -1.12576
 Alpha  occ. eigenvalues --   -1.09945  -1.07573  -1.05876  -1.05635  -1.02106
 Alpha  occ. eigenvalues --   -1.00644  -0.93575  -0.92115  -0.91365  -0.88126
 Alpha  occ. eigenvalues --   -0.85843  -0.83910  -0.80750  -0.78756  -0.77429
 Alpha  occ. eigenvalues --   -0.75605  -0.74915  -0.74469  -0.73198  -0.72033
 Alpha  occ. eigenvalues --   -0.70481  -0.70090  -0.68973  -0.68685  -0.67629
 Alpha  occ. eigenvalues --   -0.67286  -0.66913  -0.64694  -0.63484  -0.62981
 Alpha  occ. eigenvalues --   -0.61691  -0.61197  -0.60738  -0.59792  -0.59310
 Alpha  occ. eigenvalues --   -0.58840  -0.57896  -0.57498  -0.56878  -0.56533
 Alpha  occ. eigenvalues --   -0.56256  -0.55872  -0.55264  -0.54530  -0.53860
 Alpha  occ. eigenvalues --   -0.53602  -0.53203  -0.52795  -0.52648  -0.52001
 Alpha  occ. eigenvalues --   -0.51401  -0.51072  -0.50746  -0.50419  -0.50187
 Alpha  occ. eigenvalues --   -0.48621  -0.48334  -0.47257  -0.46956  -0.46601
 Alpha  occ. eigenvalues --   -0.46482  -0.46027  -0.45677  -0.44372  -0.44248
 Alpha  occ. eigenvalues --   -0.43601  -0.43483  -0.42647  -0.40401  -0.39693
 Alpha  occ. eigenvalues --   -0.39108  -0.38295  -0.37903  -0.37738  -0.37138
 Alpha  occ. eigenvalues --   -0.36790  -0.35197
 Alpha virt. eigenvalues --   -0.13562  -0.12630  -0.11581  -0.09460  -0.08251
 Alpha virt. eigenvalues --   -0.06979  -0.05129  -0.04605  -0.03839  -0.03130
 Alpha virt. eigenvalues --   -0.01702  -0.00808   0.00071   0.00342   0.00691

 Mulliken charges:
               1
     1  N   -0.777476
     2  C   -0.103847
     3  C    0.625561
     4  O   -0.496226
     5  C   -0.293719
     6  C   -0.367087
     7  C    0.618419
     8  O   -0.650624
     9  O   -0.538507
    10  H    0.422430
    11  H    0.177622
    12  H    0.181852
    13  H    0.198668
    14  H    0.165222
    15  H    0.197986
    16  H    0.398313
    17  H    0.445670
    18  N   -0.603004
    19  C   -0.053979
    20  C    0.630884
    21  O   -0.525773
    22  C   -0.309878
    23  C   -0.080928
    24  C   -0.448539
    25  C   -0.456720
    26  H    0.359543
    27  H    0.172315
    28  H    0.143563
    29  H    0.172793
    30  H    0.142803
    31  H    0.151176
    32  H    0.171763
    33  H    0.156913
    34  H    0.178615
    35  H    0.142538
    36  H    0.146159
    37  N   -0.673731
    38  C   -0.052465
    39  C    0.638755
    40  O   -0.474192
    41  C   -0.275438
    42  C   -0.291585
    43  C   -0.154566
    44  N   -0.671206
    45  C    0.763709
    46  N   -0.755112
    47  N   -0.790409
    48  O   -0.564689
    49  H    0.425445
    50  H    0.351190
    51  H    0.214196
    52  H    0.187881
    53  H    0.186010
    54  H    0.172037
    55  H    0.146708
    56  H    0.185526
    57  H    0.184516
    58  H    0.417527
    59  H    0.397558
    60  H    0.357091
    61  H    0.353770
    62  H    0.426974
 Sum of Mulliken charges =   1.00000

 Dipole moment (field-independent basis, Debye):
    X=             58.1158    Y=             85.5644    Z=             64.2830  Tot=            121.7827
 Quadrupole moment (field-independent basis, Debye-Ang):
   XX=            559.7585   YY=           1364.3530   ZZ=            733.8306
   XY=           1035.8487   XZ=            788.0103   YZ=           1142.2374

 Normal termination of Gaussian 16 at Tue May 24 03:34:18 2022.
