 Gaussian 16, Revision C.01,
 Gaussian 16:  ES64L-G16RevC.01  3-Jul-2019

 ----------------------------------------------------------------------
 # B3LYP/6-31G* empiricaldispersion=gd3 guess=read geom=check nosymm in
 tegral(ultrafinegrid)
 ----------------------------------------------------------------------

 ------------------------------------------------------
 Candidate Structure: Conf:966 Charge calc in gas phase
 ------------------------------------------------------
 Structure from the checkpoint file:  "conf-966.chk"
 Charge =  1 Multiplicity = 1

                          Input orientation:
 ---------------------------------------------------------------------
 Center     Atomic      Atomic             Coordinates (Angstroms)
 Number     Number       Type             X           Y           Z
 ---------------------------------------------------------------------
      1          7           0       10.885949   14.603939   10.540051
      2          6           0       11.305508   15.986140   10.998070
      3          6           0       10.336383   16.925679   10.252764
      4          8           0        9.643716   16.445007    9.348116
      5          6           0       12.796486   16.229992   10.703301
      6          6           0       13.707133   15.606873   11.781049
      7          6           0       13.167110   16.022328   13.156528
      8          8           0       12.475683   15.172543   13.779139
      9          8           0       13.339375   17.231355   13.515458
     10          1           0       11.674423   14.040567   10.210023
     11          1           0       11.113829   16.024864   12.070807
     12          1           0       12.969225   17.306937   10.666706
     13          1           0       13.034784   15.857368    9.698148
     14          1           0       13.716357   14.513710   11.716743
     15          1           0       14.727042   15.973761   11.637124
     16          1           0       10.406730   14.077242   11.275823
     17          1           0       10.216191   14.817597    9.747413
     18          7           0       10.308171   18.208910   10.639197
     19          6           0       10.932923   18.796942   11.833406
     20          6           0        9.948070   18.750159   13.008076
     21          8           0        8.784627   19.096461   12.876663
     22          6           0       11.328580   20.258455   11.547257
     23          6           0       12.537740   20.397135   10.601594
     24          6           0       12.583477   21.807079    9.996645
     25          6           0       13.855528   20.075125   11.327121
     26          1           0        9.576204   18.761479   10.201403
     27          1           0       11.831497   18.238706   12.088574
     28          1           0       11.558683   20.746528   12.503632
     29          1           0       10.446685   20.776040   11.147982
     30          1           0       12.402642   19.680515    9.776943
     31          1           0       11.679212   22.026059    9.417569
     32          1           0       12.670615   22.565638   10.784639
     33          1           0       13.446154   21.919302    9.331285
     34          1           0       14.068027   20.846111   12.079174
     35          1           0       13.841763   19.111179   11.850004
     36          1           0       14.693754   20.067273   10.621856
     37          7           0       10.506805   18.372471   14.206808
     38          6           0        9.690445   18.376875   15.421900
     39          6           0       10.520247   18.854452   16.617965
     40          8           0       10.259991   18.567068   17.766140
     41          6           0        8.901999   17.085795   15.714942
     42          6           0        9.668329   15.754835   15.791272
     43          6           0       10.800629   15.672039   16.827647
     44          7           0       11.999880   16.317352   16.277262
     45          6           0       12.956893   16.977380   16.930583
     46          7           0       12.843348   17.284395   18.242295
     47          7           0       14.072694   17.304057   16.254679
     48          8           0       11.571003   19.648092   16.330728
     49          1           0       11.611730   19.764043   15.360950
     50          1           0       11.400212   17.873519   14.192243
     51          1           0        8.940280   19.161540   15.254768
     52          1           0        8.142670   17.001512   14.929934
     53          1           0        8.369678   17.254338   16.656716
     54          1           0        8.937282   14.974162   16.031484
     55          1           0       10.085284   15.492177   14.810727
     56          1           0       11.038598   14.623851   17.044004
     57          1           0       10.494900   16.148369   17.759447
     58          1           0       12.252646   15.938879   15.341513
     59          1           0       11.902263   17.406221   18.601937
     60          1           0       13.487099   17.975101   18.606336
     61          1           0       14.714196   17.968669   16.663434
     62          1           0       14.017192   17.284385   15.227011
 ---------------------------------------------------------------------

 SCF Done:  E(RB3LYP) =  -1447.51160540     A.U. after    2 cycles

 Alpha  occ. eigenvalues --  -19.30464 -19.26953 -19.24568 -19.23355 -19.21941
 Alpha  occ. eigenvalues --  -19.21906 -14.60220 -14.50078 -14.48330 -14.47974
 Alpha  occ. eigenvalues --  -14.47677 -14.47571 -10.44673 -10.43896 -10.43039
 Alpha  occ. eigenvalues --  -10.40365 -10.40292 -10.39722 -10.35453 -10.34861
 Alpha  occ. eigenvalues --  -10.34128 -10.33382 -10.30792 -10.29714 -10.29501
 Alpha  occ. eigenvalues --  -10.29229 -10.28753 -10.26222 -10.25796  -1.21287
 Alpha  occ. eigenvalues --   -1.19419  -1.15420  -1.15249  -1.14062  -1.13188
 Alpha  occ. eigenvalues --   -1.12809  -1.06668  -1.05975  -1.04121  -1.02501
 Alpha  occ. eigenvalues --   -1.01258  -0.94360  -0.91961  -0.90395  -0.86989
 Alpha  occ. eigenvalues --   -0.86183  -0.84514  -0.79515  -0.77489  -0.77112
 Alpha  occ. eigenvalues --   -0.75865  -0.74642  -0.74078  -0.73689  -0.72668
 Alpha  occ. eigenvalues --   -0.72405  -0.71265  -0.70033  -0.69031  -0.67836
 Alpha  occ. eigenvalues --   -0.66727  -0.65771  -0.64831  -0.62715  -0.62384
 Alpha  occ. eigenvalues --   -0.61257  -0.60749  -0.60227  -0.60071  -0.59617
 Alpha  occ. eigenvalues --   -0.58124  -0.57863  -0.56805  -0.56484  -0.56332
 Alpha  occ. eigenvalues --   -0.56135  -0.55763  -0.54515  -0.54241  -0.53969
 Alpha  occ. eigenvalues --   -0.53413  -0.52713  -0.52168  -0.51775  -0.51637
 Alpha  occ. eigenvalues --   -0.50885  -0.50480  -0.50420  -0.49676  -0.49383
 Alpha  occ. eigenvalues --   -0.48809  -0.48207  -0.47571  -0.46967  -0.45737
 Alpha  occ. eigenvalues --   -0.45641  -0.45136  -0.44567  -0.42764  -0.42434
 Alpha  occ. eigenvalues --   -0.42203  -0.42059  -0.41335  -0.40167  -0.39819
 Alpha  occ. eigenvalues --   -0.39089  -0.38066  -0.37601  -0.37029  -0.36456
 Alpha  occ. eigenvalues --   -0.36098  -0.35597
 Alpha virt. eigenvalues --   -0.12651  -0.11097  -0.10413  -0.10022  -0.09510
 Alpha virt. eigenvalues --   -0.08626  -0.06307  -0.04936  -0.04205  -0.03565
 Alpha virt. eigenvalues --   -0.02572  -0.01376  -0.00615  -0.00075   0.00343

 Mulliken charges:
               1
     1  N   -0.755897
     2  C   -0.114354
     3  C    0.634995
     4  O   -0.518288
     5  C   -0.335657
     6  C   -0.316868
     7  C    0.570146
     8  O   -0.575575
     9  O   -0.595860
    10  H    0.415439
    11  H    0.235496
    12  H    0.219166
    13  H    0.175000
    14  H    0.152734
    15  H    0.190309
    16  H    0.422164
    17  H    0.432198
    18  N   -0.568063
    19  C   -0.134608
    20  C    0.624285
    21  O   -0.497146
    22  C   -0.267440
    23  C   -0.081697
    24  C   -0.447902
    25  C   -0.482148
    26  H    0.372040
    27  H    0.191013
    28  H    0.148915
    29  H    0.166758
    30  H    0.128381
    31  H    0.152691
    32  H    0.153505
    33  H    0.161514
    34  H    0.149379
    35  H    0.165698
    36  H    0.158673
    37  N   -0.702884
    38  C   -0.066975
    39  C    0.633424
    40  O   -0.488089
    41  C   -0.273116
    42  C   -0.299546
    43  C   -0.149888
    44  N   -0.657316
    45  C    0.741553
    46  N   -0.729054
    47  N   -0.780386
    48  O   -0.576394
    49  H    0.427946
    50  H    0.379226
    51  H    0.228535
    52  H    0.169845
    53  H    0.184297
    54  H    0.169182
    55  H    0.149212
    56  H    0.184844
    57  H    0.188126
    58  H    0.418227
    59  H    0.392199
    60  H    0.360633
    61  H    0.354900
    62  H    0.412502
 Sum of Mulliken charges =   1.00000

 Dipole moment (field-independent basis, Debye):
    X=             58.0571    Y=             78.5711    Z=             62.3853  Tot=            115.9137
 Quadrupole moment (field-independent basis, Debye-Ang):
   XX=            537.6649   YY=           1143.1224   ZZ=            689.4321
   XY=            965.5694   XZ=            760.3203   YZ=           1034.5210

 Normal termination of Gaussian 16 at Tue May 24 03:34:22 2022.
