 Gaussian 16, Revision C.01,
 Gaussian 16:  ES64L-G16RevC.01  3-Jul-2019

 ----------------------------------------------------------------------
 # B3LYP/6-31G* empiricaldispersion=gd3 guess=read geom=check nosymm in
 tegral(ultrafinegrid)
 ----------------------------------------------------------------------

 ------------------------------------------------------
 Candidate Structure: Conf:497 Charge calc in gas phase
 ------------------------------------------------------
 Structure from the checkpoint file:  "conf-497.chk"
 Charge =  1 Multiplicity = 1

                          Input orientation:
 ---------------------------------------------------------------------
 Center     Atomic      Atomic             Coordinates (Angstroms)
 Number     Number       Type             X           Y           Z
 ---------------------------------------------------------------------
      1          7           0       14.979107   15.196795   14.535013
      2          6           0       14.248747   16.521510   14.613720
      3          6           0       15.244009   17.532578   14.014476
      4          8           0       16.412382   17.168793   13.844453
      5          6           0       13.823952   16.818898   16.061734
      6          6           0       12.595609   15.983914   16.477564
      7          6           0       11.572680   16.078583   15.339296
      8          8           0       11.470959   15.086997   14.571692
      9          8           0       11.001940   17.204610   15.163591
     10          1           0       14.566497   14.568325   13.839618
     11          1           0       13.377751   16.430393   13.965196
     12          1           0       13.574874   17.879148   16.133784
     13          1           0       14.679321   16.661496   16.731696
     14          1           0       12.853864   14.932492   16.642652
     15          1           0       12.187504   16.389800   17.407273
     16          1           0       15.957135   15.481475   14.253379
     17          1           0       14.993960   14.702806   15.431709
     18          7           0       14.764882   18.751314   13.720580
     19          6           0       13.348550   19.149989   13.655275
     20          6           0       12.763517   18.767521   12.286147
     21          8           0       13.317986   19.115615   11.254278
     22          6           0       13.248337   20.677358   13.833057
     23          6           0       11.818883   21.247443   13.749887
     24          6           0       10.904871   20.715688   14.866554
     25          6           0       11.872672   22.781667   13.781013
     26          1           0       15.422299   19.350705   13.229850
     27          1           0       12.796029   18.656377   14.453417
     28          1           0       13.861826   21.141889   13.050549
     29          1           0       13.693196   20.937770   14.802229
     30          1           0       11.397797   20.957473   12.774356
     31          1           0       11.282020   21.029491   15.848033
     32          1           0        9.893991   21.126625   14.761517
     33          1           0       10.828176   19.622741   14.888073
     34          1           0       10.868114   23.208530   13.691980
     35          1           0       12.303153   23.136280   14.725696
     36          1           0       12.481733   23.178085   12.961274
     37          7           0       11.562487   18.104738   12.320439
     38          6           0       10.828680   17.880419   11.075207
     39          6           0        9.338150   18.180099   11.264441
     40          8           0        8.474385   17.711622   10.555062
     41          6           0       11.089668   16.540393   10.360782
     42          6           0       10.860212   15.231456   11.133512
     43          6           0        9.444279   15.002307   11.686280
     44          7           0        9.293260   15.755353   12.937498
     45          6           0        8.193755   16.320592   13.434965
     46          7           0        7.045507   16.392187   12.724933
     47          7           0        8.238347   16.790978   14.695014
     48          8           0        9.018114   19.033509   12.258136
     49          1           0        9.834211   19.313238   12.715874
     50          1           0       11.244646   17.682051   13.199288
     51          1           0       11.192795   18.660252   10.392470
     52          1           0       12.133419   16.566332   10.028928
     53          1           0       10.469039   16.543712    9.458773
     54          1           0       11.089046   14.406722   10.448611
     55          1           0       11.569364   15.144615   11.966471
     56          1           0        9.288532   13.938097   11.899226
     57          1           0        8.699257   15.313136   10.953233
     58          1           0       10.061996   15.559770   13.607857
     59          1           0        7.137310   16.423539   11.715103
     60          1           0        6.337551   17.029412   13.066620
     61          1           0        7.498699   17.402481   15.010540
     62          1           0        9.173611   16.960913   15.087386
 ---------------------------------------------------------------------

 SCF Done:  E(RB3LYP) =  -1447.51419789     A.U. after    2 cycles

 Alpha  occ. eigenvalues --  -19.30406 -19.26943 -19.24504 -19.23207 -19.22077
 Alpha  occ. eigenvalues --  -19.22075 -14.60279 -14.50063 -14.48374 -14.47860
 Alpha  occ. eigenvalues --  -14.47770 -14.47600 -10.44694 -10.43869 -10.43019
 Alpha  occ. eigenvalues --  -10.40330 -10.40260 -10.39891 -10.35617 -10.34801
 Alpha  occ. eigenvalues --  -10.34235 -10.33436 -10.30953 -10.29743 -10.29527
 Alpha  occ. eigenvalues --  -10.29392 -10.29264 -10.26950 -10.26034  -1.21205
 Alpha  occ. eigenvalues --   -1.19387  -1.15485  -1.15323  -1.14139  -1.13228
 Alpha  occ. eigenvalues --   -1.12764  -1.06643  -1.06175  -1.04024  -1.02582
 Alpha  occ. eigenvalues --   -1.01315  -0.94482  -0.92223  -0.90433  -0.87004
 Alpha  occ. eigenvalues --   -0.86322  -0.84681  -0.79604  -0.77747  -0.77494
 Alpha  occ. eigenvalues --   -0.75877  -0.74674  -0.74244  -0.73694  -0.72741
 Alpha  occ. eigenvalues --   -0.72434  -0.71269  -0.70108  -0.69103  -0.67874
 Alpha  occ. eigenvalues --   -0.66749  -0.65752  -0.64832  -0.62755  -0.62456
 Alpha  occ. eigenvalues --   -0.61720  -0.60751  -0.60494  -0.60179  -0.59640
 Alpha  occ. eigenvalues --   -0.58430  -0.57954  -0.56787  -0.56757  -0.56466
 Alpha  occ. eigenvalues --   -0.56205  -0.55922  -0.54618  -0.54213  -0.53903
 Alpha  occ. eigenvalues --   -0.53374  -0.52752  -0.52659  -0.52264  -0.51438
 Alpha  occ. eigenvalues --   -0.50937  -0.50733  -0.50425  -0.49838  -0.49342
 Alpha  occ. eigenvalues --   -0.48363  -0.48154  -0.47707  -0.47284  -0.46046
 Alpha  occ. eigenvalues --   -0.45676  -0.45054  -0.44606  -0.43309  -0.42841
 Alpha  occ. eigenvalues --   -0.42509  -0.42354  -0.41425  -0.40045  -0.39820
 Alpha  occ. eigenvalues --   -0.39090  -0.38118  -0.37709  -0.36979  -0.36581
 Alpha  occ. eigenvalues --   -0.36194  -0.35784
 Alpha virt. eigenvalues --   -0.12755  -0.11103  -0.10424  -0.09984  -0.09582
 Alpha virt. eigenvalues --   -0.08649  -0.06373  -0.04810  -0.03829  -0.03478
 Alpha virt. eigenvalues --   -0.02775  -0.01408  -0.00649  -0.00073   0.00443

 Mulliken charges:
               1
     1  N   -0.752942
     2  C   -0.117546
     3  C    0.636429
     4  O   -0.515375
     5  C   -0.322713
     6  C   -0.322745
     7  C    0.573473
     8  O   -0.576648
     9  O   -0.603270
    10  H    0.423217
    11  H    0.233661
    12  H    0.213352
    13  H    0.177767
    14  H    0.153024
    15  H    0.191758
    16  H    0.431402
    17  H    0.416271
    18  N   -0.580403
    19  C   -0.115290
    20  C    0.621393
    21  O   -0.503092
    22  C   -0.275079
    23  C   -0.104601
    24  C   -0.494004
    25  C   -0.446324
    26  H    0.371394
    27  H    0.190091
    28  H    0.170012
    29  H    0.160418
    30  H    0.129888
    31  H    0.158706
    32  H    0.159403
    33  H    0.164336
    34  H    0.161079
    35  H    0.154604
    36  H    0.160883
    37  N   -0.705080
    38  C   -0.068980
    39  C    0.628658
    40  O   -0.489106
    41  C   -0.271524
    42  C   -0.299067
    43  C   -0.149019
    44  N   -0.653105
    45  C    0.739399
    46  N   -0.727205
    47  N   -0.777754
    48  O   -0.594258
    49  H    0.450716
    50  H    0.387393
    51  H    0.228844
    52  H    0.168009
    53  H    0.183581
    54  H    0.169066
    55  H    0.148127
    56  H    0.185242
    57  H    0.187268
    58  H    0.418098
    59  H    0.391844
    60  H    0.360624
    61  H    0.354587
    62  H    0.411114
 Sum of Mulliken charges =   1.00000

 Dipole moment (field-independent basis, Debye):
    X=             57.7774    Y=             79.5683    Z=             69.0016  Tot=            120.1273
 Quadrupole moment (field-independent basis, Debye-Ang):
   XX=            573.6080   YY=           1174.5137   ZZ=            828.3524
   XY=            942.6674   XZ=            842.8180   YZ=           1150.4666

 Normal termination of Gaussian 16 at Tue May 24 03:33:52 2022.
