 Gaussian 16, Revision C.01,
 Gaussian 16:  ES64L-G16RevC.01  3-Jul-2019

 ----------------------------------------------------------------------
 # B3LYP/6-31G* empiricaldispersion=gd3 guess=read geom=check nosymm in
 tegral(ultrafinegrid)
 ----------------------------------------------------------------------

 ------------------------------------------------------
 Candidate Structure: Conf:234 Charge calc in gas phase
 ------------------------------------------------------
 Structure from the checkpoint file:  "conf-234.chk"
 Charge =  1 Multiplicity = 1

                          Input orientation:
 ---------------------------------------------------------------------
 Center     Atomic      Atomic             Coordinates (Angstroms)
 Number     Number       Type             X           Y           Z
 ---------------------------------------------------------------------
      1          7           0       14.212832   18.822324   13.308487
      2          6           0       14.088174   17.342261   13.519721
      3          6           0       14.406564   17.098441   14.996178
      4          8           0       15.514702   17.404132   15.411561
      5          6           0       15.061785   16.627743   12.560329
      6          6           0       14.461944   16.287269   11.184490
      7          6           0       13.644503   17.342956   10.415254
      8          8           0       13.520025   18.543519   10.882022
      9          8           0       13.081569   16.942365    9.383999
     10          1           0       14.013073   18.925002   12.225103
     11          1           0       13.059102   17.091369   13.258399
     12          1           0       15.393586   15.696851   13.031313
     13          1           0       15.965689   17.240098   12.463224
     14          1           0       15.259831   15.944343   10.516564
     15          1           0       13.786810   15.428365   11.285551
     16          1           0       13.531998   19.311229   13.905502
     17          1           0       15.154678   19.118698   13.584450
     18          7           0       13.439237   16.536832   15.780966
     19          6           0       12.008537   16.487644   15.520877
     20          6           0       11.428582   17.917793   15.300951
     21          8           0       12.147971   18.918531   15.344764
     22          6           0       11.306588   15.751355   16.682833
     23          6           0       11.803497   14.313660   16.940579
     24          6           0       11.026306   13.713664   18.121529
     25          6           0       11.682421   13.427880   15.693219
     26          1           0       13.716517   16.503414   16.757060
     27          1           0       11.826556   15.920238   14.599510
     28          1           0       10.230012   15.710530   16.475469
     29          1           0       11.418936   16.355185   17.594111
     30          1           0       12.864344   14.357786   17.222177
     31          1           0       11.118174   14.332968   19.021239
     32          1           0        9.959121   13.621403   17.882596
     33          1           0       11.400293   12.713628   18.363374
     34          1           0       12.330694   13.769736   14.877883
     35          1           0       11.972706   12.398138   15.924714
     36          1           0       10.647854   13.404451   15.325510
     37          7           0       10.103591   17.954509   15.017807
     38          6           0        9.257494   19.143176   14.897701
     39          6           0        7.933135   18.694292   14.266173
     40          8           0        7.842135   17.701511   13.574822
     41          6           0        9.820679   20.298085   14.019705
     42          6           0        9.826064   20.047347   12.503554
     43          6           0       10.559563   18.761783   12.102793
     44          7           0       10.789680   18.642428   10.670207
     45          6           0       10.007852   17.962475    9.828680
     46          7           0        8.724504   17.690120   10.147510
     47          7           0       10.518049   17.596702    8.648480
     48          8           0        6.887941   19.516704   14.421036
     49          1           0        7.085253   20.246208   15.034084
     50          1           0        9.610259   17.075478   14.915065
     51          1           0        9.076761   19.545233   15.904428
     52          1           0       10.825829   20.517007   14.381278
     53          1           0        9.211535   21.186267   14.225701
     54          1           0        8.798973   20.026638   12.116434
     55          1           0       10.314701   20.897779   12.015084
     56          1           0       10.026803   17.880708   12.467606
     57          1           0       11.549963   18.751519   12.560526
     58          1           0       11.771076   18.800065   10.393875
     59          1           0        8.334162   17.949957   11.044138
     60          1           0        8.212869   16.995166    9.623945
     61          1           0        9.940921   17.136312    7.959738
     62          1           0       11.543165   17.445603    8.629477
 ---------------------------------------------------------------------

 SCF Done:  E(RB3LYP) =  -1447.50723695     A.U. after    1 cycles

 Alpha  occ. eigenvalues --  -19.33267 -19.27611 -19.25897 -19.23208 -19.21916
 Alpha  occ. eigenvalues --  -19.19851 -14.53279 -14.50264 -14.50002 -14.48277
 Alpha  occ. eigenvalues --  -14.47934 -14.47467 -10.46012 -10.45330 -10.42861
 Alpha  occ. eigenvalues --  -10.40785 -10.38699 -10.38393 -10.36923 -10.36726
 Alpha  occ. eigenvalues --  -10.34896 -10.32380 -10.31439 -10.31027 -10.30806
 Alpha  occ. eigenvalues --  -10.29429 -10.28898 -10.27130 -10.26414  -1.24082
 Alpha  occ. eigenvalues --   -1.17701  -1.15809  -1.15500  -1.14408  -1.13561
 Alpha  occ. eigenvalues --   -1.09057  -1.06655  -1.04940  -1.04713  -1.03379
 Alpha  occ. eigenvalues --   -1.01813  -0.93882  -0.91929  -0.90531  -0.88374
 Alpha  occ. eigenvalues --   -0.85555  -0.82872  -0.81474  -0.78122  -0.76938
 Alpha  occ. eigenvalues --   -0.76589  -0.75551  -0.75083  -0.73730  -0.71250
 Alpha  occ. eigenvalues --   -0.71025  -0.70144  -0.69602  -0.68639  -0.67875
 Alpha  occ. eigenvalues --   -0.67199  -0.66688  -0.63831  -0.63093  -0.62611
 Alpha  occ. eigenvalues --   -0.62251  -0.61587  -0.60619  -0.60373  -0.59728
 Alpha  occ. eigenvalues --   -0.59012  -0.58599  -0.57571  -0.57092  -0.56648
 Alpha  occ. eigenvalues --   -0.55602  -0.55423  -0.55094  -0.54308  -0.53864
 Alpha  occ. eigenvalues --   -0.53059  -0.52966  -0.52548  -0.52341  -0.51553
 Alpha  occ. eigenvalues --   -0.50955  -0.50783  -0.50393  -0.49627  -0.48940
 Alpha  occ. eigenvalues --   -0.48719  -0.48384  -0.48300  -0.47577  -0.47051
 Alpha  occ. eigenvalues --   -0.46536  -0.46497  -0.45267  -0.44441  -0.43525
 Alpha  occ. eigenvalues --   -0.42871  -0.42700  -0.41203  -0.40507  -0.39907
 Alpha  occ. eigenvalues --   -0.39141  -0.38077  -0.37614  -0.36843  -0.36487
 Alpha  occ. eigenvalues --   -0.36285  -0.34181
 Alpha virt. eigenvalues --   -0.13398  -0.12116  -0.10529  -0.09737  -0.07489
 Alpha virt. eigenvalues --   -0.06408  -0.05550  -0.04979  -0.04370  -0.03327
 Alpha virt. eigenvalues --   -0.02400  -0.01677  -0.00620  -0.00282   0.00516

 Mulliken charges:
               1
     1  N   -0.780581
     2  C   -0.104358
     3  C    0.624862
     4  O   -0.494123
     5  C   -0.283178
     6  C   -0.373228
     7  C    0.624151
     8  O   -0.660427
     9  O   -0.551186
    10  H    0.452024
    11  H    0.168418
    12  H    0.190482
    13  H    0.177553
    14  H    0.201962
    15  H    0.171234
    16  H    0.413303
    17  H    0.396785
    18  N   -0.590158
    19  C   -0.079573
    20  C    0.636516
    21  O   -0.549885
    22  C   -0.302580
    23  C   -0.073759
    24  C   -0.448768
    25  C   -0.455928
    26  H    0.355063
    27  H    0.177082
    28  H    0.145216
    29  H    0.163012
    30  H    0.144366
    31  H    0.154129
    32  H    0.149353
    33  H    0.168716
    34  H    0.141189
    35  H    0.174373
    36  H    0.143056
    37  N   -0.623777
    38  C   -0.045371
    39  C    0.607402
    40  O   -0.463650
    41  C   -0.302767
    42  C   -0.283047
    43  C   -0.182669
    44  N   -0.596679
    45  C    0.780214
    46  N   -0.767274
    47  N   -0.770457
    48  O   -0.539167
    49  H    0.435173
    50  H    0.360678
    51  H    0.188251
    52  H    0.208789
    53  H    0.160494
    54  H    0.160232
    55  H    0.181540
    56  H    0.174698
    57  H    0.148508
    58  H    0.404498
    59  H    0.388946
    60  H    0.370637
    61  H    0.357149
    62  H    0.422537
 Sum of Mulliken charges =   1.00000

 Dipole moment (field-independent basis, Debye):
    X=             49.6691    Y=             85.4377    Z=             64.8544  Tot=            118.2062
 Quadrupole moment (field-independent basis, Debye-Ang):
   XX=            359.9550   YY=           1374.7380   ZZ=            742.0587
   XY=            874.6355   XZ=            676.1862   YZ=           1154.3754

 Normal termination of Gaussian 16 at Tue May 24 03:32:28 2022.
