 Gaussian 16, Revision C.01,
 Gaussian 16:  ES64L-G16RevC.01  3-Jul-2019

 ----------------------------------------------------------------------
 # B3LYP/6-31G* empiricaldispersion=gd3 guess=read geom=check nosymm in
 tegral(ultrafinegrid)
 ----------------------------------------------------------------------

 -----------------------------------------------------
 Candidate Structure: Conf:34 Charge calc in gas phase
 -----------------------------------------------------
 Structure from the checkpoint file:  "conf-34.chk"
 Charge =  1 Multiplicity = 1

                          Input orientation:
 ---------------------------------------------------------------------
 Center     Atomic      Atomic             Coordinates (Angstroms)
 Number     Number       Type             X           Y           Z
 ---------------------------------------------------------------------
      1          7           0       14.512282   17.462120   13.376458
      2          6           0       13.784345   18.652425   13.929603
      3          6           0       13.891216   19.736810   12.855429
      4          8           0       15.003406   20.134163   12.539096
      5          6           0       14.435514   19.053635   15.269181
      6          6           0       13.812146   18.380825   16.504428
      7          6           0       13.542111   16.865267   16.496473
      8          8           0       13.866881   16.151949   15.468068
      9          8           0       12.948406   16.416096   17.491111
     10          1           0       14.442260   16.739495   14.188570
     11          1           0       12.760541   18.316777   14.099318
     12          1           0       14.348685   20.138547   15.387009
     13          1           0       15.511834   18.855660   15.207183
     14          1           0       14.425727   18.598436   17.385444
     15          1           0       12.837938   18.839666   16.716077
     16          1           0       14.039617   17.153011   12.514611
     17          1           0       15.473128   17.734966   13.145762
     18          7           0       12.738135   20.219355   12.305327
     19          6           0       11.424220   19.592727   12.309789
     20          6           0       11.483353   18.160099   11.698653
     21          8           0       12.550504   17.650345   11.346624
     22          6           0       10.426646   20.507710   11.566229
     23          6           0       10.297342   21.935357   12.137430
     24          6           0        9.281665   22.725939   11.299617
     25          6           0        9.905300   21.931218   13.621067
     26          1           0       12.923786   20.863002   11.542515
     27          1           0       11.078585   19.482600   13.345074
     28          1           0        9.432064   20.044112   11.587495
     29          1           0       10.718848   20.553493   10.507911
     30          1           0       11.271043   22.435615   12.046785
     31          1           0        9.214829   23.761674   11.647782
     32          1           0        9.560818   22.745310   10.239855
     33          1           0        8.280311   22.283296   11.376789
     34          1           0        9.751353   22.953919   13.979712
     35          1           0        8.967996   21.381197   13.779306
     36          1           0       10.679978   21.481089   14.252686
     37          7           0       10.301424   17.500248   11.645368
     38          6           0       10.095142   16.254544   10.883566
     39          6           0        8.605067   15.904905   10.869551
     40          8           0        8.173022   14.785730   10.745516
     41          6           0       10.939372   15.039759   11.314690
     42          6           0       10.694921   14.454356   12.713835
     43          6           0       11.017244   15.421852   13.868260
     44          7           0       11.543081   14.786419   15.078605
     45          6           0       10.809672   14.272571   16.067787
     46          7           0        9.555542   13.825798   15.814540
     47          7           0       11.327154   14.230404   17.293852
     48          8           0        7.818118   17.004093   10.978017
     49          1           0        6.889346   16.707007   10.920030
     50          1           0        9.458856   18.025104   11.841643
     51          1           0       10.357162   16.460291    9.834288
     52          1           0       11.989675   15.317973   11.206467
     53          1           0       10.732000   14.258044   10.577823
     54          1           0        9.659227   14.096816   12.778670
     55          1           0       11.342461   13.575851   12.815067
     56          1           0       10.147249   16.038959   14.121526
     57          1           0       11.812488   16.102118   13.554840
     58          1           0       12.511580   15.071005   15.319130
     59          1           0        9.325278   13.497073   14.887778
     60          1           0        8.987289   13.469735   16.569725
     61          1           0       10.874658   13.715012   18.034847
     62          1           0       12.074462   14.923674   17.519334
 ---------------------------------------------------------------------

 SCF Done:  E(RB3LYP) =  -1447.51202292     A.U. after    2 cycles

 Alpha  occ. eigenvalues --  -19.32342 -19.26275 -19.25682 -19.23086 -19.21961
 Alpha  occ. eigenvalues --  -19.20027 -14.53277 -14.50092 -14.49555 -14.47828
 Alpha  occ. eigenvalues --  -14.47753 -14.47505 -10.45106 -10.44590 -10.42396
 Alpha  occ. eigenvalues --  -10.40678 -10.38769 -10.36824 -10.36802 -10.36570
 Alpha  occ. eigenvalues --  -10.34777 -10.30999 -10.30730 -10.30570 -10.30367
 Alpha  occ. eigenvalues --  -10.29411 -10.28873 -10.27096 -10.26405  -1.23033
 Alpha  occ. eigenvalues --   -1.17423  -1.15395  -1.14402  -1.14134  -1.13441
 Alpha  occ. eigenvalues --   -1.09091  -1.05953  -1.05044  -1.04582  -1.03035
 Alpha  occ. eigenvalues --   -1.01687  -0.92833  -0.91529  -0.90470  -0.87907
 Alpha  occ. eigenvalues --   -0.85254  -0.82806  -0.81277  -0.78080  -0.76713
 Alpha  occ. eigenvalues --   -0.76653  -0.75117  -0.74282  -0.72029  -0.70947
 Alpha  occ. eigenvalues --   -0.70815  -0.69465  -0.68794  -0.67808  -0.67354
 Alpha  occ. eigenvalues --   -0.66807  -0.65832  -0.63205  -0.62934  -0.62067
 Alpha  occ. eigenvalues --   -0.61961  -0.61238  -0.60380  -0.59940  -0.59567
 Alpha  occ. eigenvalues --   -0.58781  -0.58455  -0.57701  -0.56720  -0.56008
 Alpha  occ. eigenvalues --   -0.55242  -0.54790  -0.54308  -0.53840  -0.53537
 Alpha  occ. eigenvalues --   -0.53072  -0.52781  -0.52290  -0.51957  -0.51323
 Alpha  occ. eigenvalues --   -0.50837  -0.50225  -0.49891  -0.49561  -0.48780
 Alpha  occ. eigenvalues --   -0.48317  -0.47645  -0.47415  -0.46949  -0.46501
 Alpha  occ. eigenvalues --   -0.46394  -0.45971  -0.44430  -0.44194  -0.43473
 Alpha  occ. eigenvalues --   -0.42831  -0.42664  -0.40856  -0.40034  -0.39293
 Alpha  occ. eigenvalues --   -0.39104  -0.37945  -0.37451  -0.36743  -0.36481
 Alpha  occ. eigenvalues --   -0.36272  -0.34384
 Alpha virt. eigenvalues --   -0.12317  -0.11545  -0.10274  -0.10172  -0.06495
 Alpha virt. eigenvalues --   -0.05575  -0.05494  -0.04730  -0.03392  -0.02582
 Alpha virt. eigenvalues --   -0.02438  -0.01537  -0.00801   0.00091   0.00207

 Mulliken charges:
               1
     1  N   -0.774907
     2  C   -0.101265
     3  C    0.623194
     4  O   -0.495620
     5  C   -0.283785
     6  C   -0.371535
     7  C    0.624240
     8  O   -0.659598
     9  O   -0.547326
    10  H    0.446699
    11  H    0.169634
    12  H    0.190525
    13  H    0.176866
    14  H    0.201555
    15  H    0.173162
    16  H    0.420198
    17  H    0.396388
    18  N   -0.590195
    19  C   -0.076439
    20  C    0.639422
    21  O   -0.555157
    22  C   -0.311245
    23  C   -0.074774
    24  C   -0.448628
    25  C   -0.454977
    26  H    0.354904
    27  H    0.179882
    28  H    0.148072
    29  H    0.164634
    30  H    0.144431
    31  H    0.168624
    32  H    0.154818
    33  H    0.148154
    34  H    0.174043
    35  H    0.141624
    36  H    0.142272
    37  N   -0.635301
    38  C   -0.032954
    39  C    0.588126
    40  O   -0.434821
    41  C   -0.288109
    42  C   -0.298887
    43  C   -0.153697
    44  N   -0.618268
    45  C    0.761586
    46  N   -0.758364
    47  N   -0.770896
    48  O   -0.585286
    49  H    0.437070
    50  H    0.372298
    51  H    0.215962
    52  H    0.179547
    53  H    0.189211
    54  H    0.158871
    55  H    0.176357
    56  H    0.164411
    57  H    0.151052
    58  H    0.414535
    59  H    0.377441
    60  H    0.368718
    61  H    0.356005
    62  H    0.427505
 Sum of Mulliken charges =   1.00000

 Dipole moment (field-independent basis, Debye):
    X=             49.6290    Y=             80.8718    Z=             65.5817  Tot=            115.3440
 Quadrupole moment (field-independent basis, Debye-Ang):
   XX=            365.0351   YY=           1233.2552   ZZ=            747.6319
   XY=            838.7417   XZ=            677.6772   YZ=           1081.0559

 Normal termination of Gaussian 16 at Tue May 24 03:32:48 2022.
