 Gaussian 16, Revision C.01,
 Gaussian 16:  ES64L-G16RevC.01  3-Jul-2019

 ----------------------------------------------------------------------
 # B3LYP/6-31G* empiricaldispersion=gd3 guess=read geom=check nosymm in
 tegral(ultrafinegrid)
 ----------------------------------------------------------------------

 ------------------------------------------------------
 Candidate Structure: Conf:474 Charge calc in gas phase
 ------------------------------------------------------
 Structure from the checkpoint file:  "conf-474.chk"
 Charge =  1 Multiplicity = 1

                          Input orientation:
 ---------------------------------------------------------------------
 Center     Atomic      Atomic             Coordinates (Angstroms)
 Number     Number       Type             X           Y           Z
 ---------------------------------------------------------------------
      1          7           0       12.235877   14.832272   10.905791
      2          6           0       12.502043   15.069043   12.370137
      3          6           0       14.005466   15.042650   12.625927
      4          8           0       14.755629   14.523605   11.808682
      5          6           0       11.681084   14.080614   13.212376
      6          6           0       10.154307   14.270472   13.017520
      7          6           0        9.915348   15.767473   12.822711
      8          8           0        9.942218   16.196462   11.622062
      9          8           0        9.874678   16.507470   13.845755
     10          1           0       12.934075   15.314981   10.328715
     11          1           0       12.143135   16.084019   12.523185
     12          1           0       11.941424   14.247651   14.259670
     13          1           0       11.993434   13.055469   12.978481
     14          1           0        9.795946   13.724829   12.139586
     15          1           0        9.625811   13.898613   13.897811
     16          1           0       12.301978   13.838168   10.665695
     17          1           0       11.267160   15.213402   10.742276
     18          7           0       14.378232   15.628149   13.794911
     19          6           0       13.544809   16.556628   14.578592
     20          6           0       13.577533   17.953507   13.935856
     21          8           0       14.640467   18.519927   13.735637
     22          6           0       14.065057   16.656607   16.021498
     23          6           0       13.241476   17.600120   16.921988
     24          6           0       11.772824   17.161098   17.053968
     25          6           0       13.901584   17.699068   18.304518
     26          1           0       15.383121   15.721188   13.911764
     27          1           0       12.523756   16.177964   14.609804
     28          1           0       15.103065   17.009391   15.983210
     29          1           0       14.072051   15.646617   16.451142
     30          1           0       13.268515   18.604732   16.471392
     31          1           0       11.709772   16.157383   17.493227
     32          1           0       11.228794   17.840635   17.719786
     33          1           0       11.233849   17.129084   16.098509
     34          1           0       13.358342   18.399080   18.948100
     35          1           0       13.906996   16.722195   18.803685
     36          1           0       14.938067   18.045454   18.228450
     37          7           0       12.357677   18.535472   13.668769
     38          6           0       12.326385   19.904408   13.150943
     39          6           0       11.151888   20.682508   13.745504
     40          8           0       10.667247   21.654617   13.206413
     41          6           0       12.440766   20.046570   11.621263
     42          6           0       11.420687   19.314404   10.735430
     43          6           0        9.945301   19.704938   10.917673
     44          7           0        9.394430   18.994663   12.079630
     45          6           0        8.430066   19.403239   12.908806
     46          7           0        7.982315   20.677693   12.897225
     47          7           0        7.878263   18.498958   13.736352
     48          8           0       10.687038   20.255306   14.935044
     49          1           0       11.212864   19.485882   15.228948
     50          1           0       11.508275   17.967380   13.651854
     51          1           0       13.225890   20.380385   13.564516
     52          1           0       13.443894   19.695368   11.356533
     53          1           0       12.410128   21.118569   11.401132
     54          1           0       11.692254   19.518055    9.693159
     55          1           0       11.505229   18.227072   10.866085
     56          1           0        9.366255   19.420704   10.030959
     57          1           0        9.855138   20.783281   11.047711
     58          1           0        9.546136   17.976478   12.023963
     59          1           0        8.659679   21.393022   12.649193
     60          1           0        7.380426   20.957778   13.660960
     61          1           0        7.337310   18.829303   14.523399
     62          1           0        8.407838   17.630666   13.878210
 ---------------------------------------------------------------------

 SCF Done:  E(RB3LYP) =  -1447.51716700     A.U. after    1 cycles

 Alpha  occ. eigenvalues --  -19.31085 -19.25191 -19.25110 -19.23742 -19.23723
 Alpha  occ. eigenvalues --  -19.23186 -14.59418 -14.48896 -14.48873 -14.48750
 Alpha  occ. eigenvalues --  -14.48711 -14.48341 -10.45426 -10.43742 -10.42575
 Alpha  occ. eigenvalues --  -10.41136 -10.40743 -10.39434 -10.35732 -10.35438
 Alpha  occ. eigenvalues --  -10.34170 -10.34132 -10.31278 -10.30480 -10.29889
 Alpha  occ. eigenvalues --  -10.29619 -10.29394 -10.27294 -10.26056  -1.21885
 Alpha  occ. eigenvalues --   -1.17676  -1.16649  -1.15844  -1.14005  -1.13551
 Alpha  occ. eigenvalues --   -1.13420  -1.07337  -1.05600  -1.04663  -1.03362
 Alpha  occ. eigenvalues --   -1.01993  -0.94212  -0.92248  -0.91034  -0.87193
 Alpha  occ. eigenvalues --   -0.86317  -0.84736  -0.80235  -0.77909  -0.77320
 Alpha  occ. eigenvalues --   -0.75902  -0.75345  -0.74777  -0.73453  -0.72445
 Alpha  occ. eigenvalues --   -0.71879  -0.71095  -0.70769  -0.69797  -0.68043
 Alpha  occ. eigenvalues --   -0.67461  -0.65712  -0.65206  -0.62674  -0.62215
 Alpha  occ. eigenvalues --   -0.61941  -0.61101  -0.60929  -0.60572  -0.59616
 Alpha  occ. eigenvalues --   -0.58441  -0.58322  -0.57542  -0.57049  -0.56895
 Alpha  occ. eigenvalues --   -0.56409  -0.55939  -0.55076  -0.54593  -0.54197
 Alpha  occ. eigenvalues --   -0.53955  -0.53248  -0.52975  -0.52772  -0.52097
 Alpha  occ. eigenvalues --   -0.51245  -0.50946  -0.50560  -0.49978  -0.49752
 Alpha  occ. eigenvalues --   -0.48540  -0.48297  -0.48007  -0.47347  -0.46429
 Alpha  occ. eigenvalues --   -0.46218  -0.45694  -0.45418  -0.43390  -0.43155
 Alpha  occ. eigenvalues --   -0.42608  -0.42491  -0.40519  -0.40117  -0.39582
 Alpha  occ. eigenvalues --   -0.39376  -0.38638  -0.38484  -0.38071  -0.37506
 Alpha  occ. eigenvalues --   -0.37079  -0.36326
 Alpha virt. eigenvalues --   -0.11960  -0.11062  -0.10751  -0.10292  -0.09982
 Alpha virt. eigenvalues --   -0.09372  -0.05625  -0.04869  -0.04295  -0.02881
 Alpha virt. eigenvalues --   -0.02458  -0.02009  -0.00970  -0.00314   0.00401

 Mulliken charges:
               1
     1  N   -0.737782
     2  C   -0.153232
     3  C    0.618063
     4  O   -0.495026
     5  C   -0.296845
     6  C   -0.336799
     7  C    0.589845
     8  O   -0.603808
     9  O   -0.589756
    10  H    0.415480
    11  H    0.215658
    12  H    0.208099
    13  H    0.185178
    14  H    0.164240
    15  H    0.195680
    16  H    0.411965
    17  H    0.431508
    18  N   -0.586387
    19  C   -0.101494
    20  C    0.629589
    21  O   -0.498430
    22  C   -0.276495
    23  C   -0.098526
    24  C   -0.483662
    25  C   -0.446429
    26  H    0.365834
    27  H    0.169858
    28  H    0.173013
    29  H    0.161278
    30  H    0.129987
    31  H    0.158976
    32  H    0.162325
    33  H    0.147896
    34  H    0.160109
    35  H    0.154977
    36  H    0.161287
    37  N   -0.706019
    38  C   -0.068258
    39  C    0.634854
    40  O   -0.492290
    41  C   -0.273072
    42  C   -0.296972
    43  C   -0.145898
    44  N   -0.653659
    45  C    0.743277
    46  N   -0.730831
    47  N   -0.773079
    48  O   -0.583018
    49  H    0.443584
    50  H    0.379863
    51  H    0.231790
    52  H    0.174006
    53  H    0.185511
    54  H    0.172710
    55  H    0.130879
    56  H    0.186020
    57  H    0.190358
    58  H    0.415265
    59  H    0.397943
    60  H    0.361572
    61  H    0.357230
    62  H    0.412063
 Sum of Mulliken charges =   1.00000

 Dipole moment (field-independent basis, Debye):
    X=             51.5408    Y=             81.0508    Z=             61.9320  Tot=            114.2859
 Quadrupole moment (field-independent basis, Debye-Ang):
   XX=            396.0612   YY=           1228.9871   ZZ=            660.2500
   XY=            850.9161   XZ=            663.0626   YZ=           1051.3144

 Normal termination of Gaussian 16 at Tue May 24 03:33:32 2022.
