 Gaussian 16, Revision C.01,
 Gaussian 16:  ES64L-G16RevC.01  3-Jul-2019

 ----------------------------------------------------------------------
 # B3LYP/6-31G* empiricaldispersion=gd3 guess=read geom=check nosymm in
 tegral(ultrafinegrid)
 ----------------------------------------------------------------------

 ------------------------------------------------------
 Candidate Structure: Conf:446 Charge calc in gas phase
 ------------------------------------------------------
 Structure from the checkpoint file:  "conf-446.chk"
 Charge =  1 Multiplicity = 1

                          Input orientation:
 ---------------------------------------------------------------------
 Center     Atomic      Atomic             Coordinates (Angstroms)
 Number     Number       Type             X           Y           Z
 ---------------------------------------------------------------------
      1          7           0       11.923486   18.113859   10.207537
      2          6           0       11.302059   17.117058   11.144205
      3          6           0       11.987340   15.766305   10.947763
      4          8           0       12.566455   15.535552    9.893024
      5          6           0        9.779838   17.085570   10.925231
      6          6           0        9.122723   18.488993   10.961750
      7          6           0        9.722601   19.326025   12.097385
      8          8           0       10.885839   19.838832   11.865246
      9          8           0        9.125186   19.383111   13.187467
     10          1           0       12.943426   18.018879   10.193218
     11          1           0       11.526452   17.520709   12.130268
     12          1           0        9.347484   16.456023   11.708590
     13          1           0        9.566661   16.585901    9.972382
     14          1           0        9.280699   19.009107   10.010257
     15          1           0        8.046972   18.377059   11.108429
     16          1           0       11.607140   17.966560    9.244895
     17          1           0       11.609078   19.061326   10.627230
     18          7           0       11.875034   14.893390   11.980903
     19          6           0       11.472176   15.207200   13.358304
     20          6           0       12.696714   15.761745   14.110468
     21          8           0       13.716401   15.103549   14.212876
     22          6           0       10.954898   13.959432   14.099573
     23          6           0        9.542613   13.475035   13.713044
     24          6           0        9.435091   12.967255   12.266821
     25          6           0        9.102252   12.379110   14.696479
     26          1           0       12.394421   14.030136   11.853286
     27          1           0       10.664229   15.944246   13.335563
     28          1           0       10.954906   14.204615   15.169670
     29          1           0       11.691531   13.153970   13.980484
     30          1           0        8.856726   14.329481   13.830325
     31          1           0        8.431956   12.570459   12.077874
     32          1           0        9.628475   13.752182   11.530100
     33          1           0       10.150150   12.154739   12.085137
     34          1           0        8.082190   12.047309   14.476894
     35          1           0        9.759878   11.504070   14.623242
     36          1           0        9.125834   12.731680   15.734078
     37          7           0       12.556848   17.012254   14.691353
     38          6           0       13.722993   17.635435   15.327536
     39          6           0       13.273896   18.533649   16.481255
     40          8           0       13.921057   19.486945   16.863163
     41          6           0       14.699316   18.334295   14.364234
     42          6           0       14.137902   19.399245   13.407434
     43          6           0       13.473387   20.631523   14.040639
     44          7           0       12.069403   20.331809   14.386009
     45          6           0       11.361236   20.960625   15.351637
     46          7           0       11.977533   21.529792   16.406372
     47          7           0       10.036047   21.015112   15.221036
     48          8           0       12.116600   18.207559   17.078004
     49          1           0       11.757944   17.406082   16.648838
     50          1           0       11.839076   17.641364   14.344322
     51          1           0       14.273327   16.804712   15.788005
     52          1           0       15.165438   17.543128   13.767309
     53          1           0       15.488770   18.779117   14.978049
     54          1           0       14.976430   19.751758   12.795535
     55          1           0       13.423494   18.946839   12.704429
     56          1           0       13.478863   21.463834   13.326419
     57          1           0       14.027812   20.945342   14.923721
     58          1           0       11.523370   20.144847   13.525351
     59          1           0       12.855406   21.117944   16.720346
     60          1           0       11.396307   21.889588   17.151809
     61          1           0        9.459169   21.284235   16.005461
     62          1           0        9.590130   20.507965   14.431474
 ---------------------------------------------------------------------

 SCF Done:  E(RB3LYP) =  -1447.51138990     A.U. after    2 cycles

 Alpha  occ. eigenvalues --  -19.31850 -19.26074 -19.25019 -19.24824 -19.23618
 Alpha  occ. eigenvalues --  -19.22505 -14.57531 -14.50154 -14.49210 -14.48852
 Alpha  occ. eigenvalues --  -14.48504 -14.48191 -10.45448 -10.44573 -10.42580
 Alpha  occ. eigenvalues --  -10.41852 -10.40615 -10.39320 -10.36839 -10.36323
 Alpha  occ. eigenvalues --  -10.34306 -10.33908 -10.31379 -10.31079 -10.30625
 Alpha  occ. eigenvalues --  -10.30180 -10.29178 -10.26499 -10.26031  -1.22791
 Alpha  occ. eigenvalues --   -1.17613  -1.16879  -1.16223  -1.14453  -1.13657
 Alpha  occ. eigenvalues --   -1.12338  -1.07055  -1.06023  -1.05773  -1.03167
 Alpha  occ. eigenvalues --   -1.01807  -0.93691  -0.92395  -0.91407  -0.87759
 Alpha  occ. eigenvalues --   -0.86109  -0.85080  -0.80523  -0.77482  -0.76803
 Alpha  occ. eigenvalues --   -0.76311  -0.75507  -0.74366  -0.73954  -0.72914
 Alpha  occ. eigenvalues --   -0.71290  -0.71035  -0.70485  -0.70185  -0.68260
 Alpha  occ. eigenvalues --   -0.67816  -0.66342  -0.65042  -0.62739  -0.62599
 Alpha  occ. eigenvalues --   -0.62211  -0.61413  -0.60722  -0.60376  -0.59827
 Alpha  occ. eigenvalues --   -0.59275  -0.58020  -0.57682  -0.57296  -0.56189
 Alpha  occ. eigenvalues --   -0.55978  -0.55794  -0.55225  -0.54810  -0.54593
 Alpha  occ. eigenvalues --   -0.54180  -0.53572  -0.53008  -0.52574  -0.52362
 Alpha  occ. eigenvalues --   -0.51741  -0.51481  -0.51187  -0.50452  -0.50266
 Alpha  occ. eigenvalues --   -0.48538  -0.47920  -0.47527  -0.47342  -0.47163
 Alpha  occ. eigenvalues --   -0.46578  -0.46134  -0.46024  -0.43972  -0.43045
 Alpha  occ. eigenvalues --   -0.42668  -0.42240  -0.40896  -0.40235  -0.40039
 Alpha  occ. eigenvalues --   -0.39554  -0.38984  -0.38763  -0.38271  -0.37954
 Alpha  occ. eigenvalues --   -0.36684  -0.36511
 Alpha virt. eigenvalues --   -0.12240  -0.12005  -0.11557  -0.10598  -0.09291
 Alpha virt. eigenvalues --   -0.08519  -0.06748  -0.04760  -0.03835  -0.03624
 Alpha virt. eigenvalues --   -0.03379  -0.01953  -0.00897  -0.00380   0.00079

 Mulliken charges:
               1
     1  N   -0.748791
     2  C   -0.127050
     3  C    0.613443
     4  O   -0.495177
     5  C   -0.300951
     6  C   -0.356996
     7  C    0.610999
     8  O   -0.636318
     9  O   -0.552058
    10  H    0.405870
    11  H    0.182471
    12  H    0.199940
    13  H    0.190144
    14  H    0.162699
    15  H    0.201608
    16  H    0.406908
    17  H    0.437625
    18  N   -0.577168
    19  C   -0.092598
    20  C    0.633089
    21  O   -0.482474
    22  C   -0.275516
    23  C   -0.082502
    24  C   -0.450897
    25  C   -0.447135
    26  H    0.366560
    27  H    0.152537
    28  H    0.153626
    29  H    0.173589
    30  H    0.124544
    31  H    0.165687
    32  H    0.139504
    33  H    0.151449
    34  H    0.164179
    35  H    0.158047
    36  H    0.149214
    37  N   -0.685840
    38  C   -0.071596
    39  C    0.643080
    40  O   -0.490181
    41  C   -0.276196
    42  C   -0.295002
    43  C   -0.151799
    44  N   -0.680448
    45  C    0.756797
    46  N   -0.748980
    47  N   -0.784458
    48  O   -0.562579
    49  H    0.430756
    50  H    0.354948
    51  H    0.236643
    52  H    0.177108
    53  H    0.191439
    54  H    0.176010
    55  H    0.112995
    56  H    0.183753
    57  H    0.197821
    58  H    0.412736
    59  H    0.407692
    60  H    0.361837
    61  H    0.358028
    62  H    0.427335
 Sum of Mulliken charges =   1.00000

 Dipole moment (field-independent basis, Debye):
    X=             54.1535    Y=             88.1080    Z=             63.6569  Tot=            121.4406
 Quadrupole moment (field-independent basis, Debye-Ang):
   XX=            448.5866   YY=           1476.5625   ZZ=            708.9174
   XY=           1005.6297   XZ=            714.0124   YZ=           1177.0387

 Normal termination of Gaussian 16 at Tue May 24 03:32:54 2022.
