 Gaussian 16, Revision C.01,
 Gaussian 16:  ES64L-G16RevC.01  3-Jul-2019

 ----------------------------------------------------------------------
 # B3LYP/6-31G* empiricaldispersion=gd3 guess=read geom=check nosymm in
 tegral(ultrafinegrid)
 ----------------------------------------------------------------------

 ------------------------------------------------------
 Candidate Structure: Conf:669 Charge calc in gas phase
 ------------------------------------------------------
 Structure from the checkpoint file:  "conf-669.chk"
 Charge =  1 Multiplicity = 1

                          Input orientation:
 ---------------------------------------------------------------------
 Center     Atomic      Atomic             Coordinates (Angstroms)
 Number     Number       Type             X           Y           Z
 ---------------------------------------------------------------------
      1          7           0       12.706549   15.049279   15.363043
      2          6           0       11.800709   16.246120   15.427295
      3          6           0       12.345699   17.216383   16.473634
      4          8           0       13.071053   16.790126   17.363688
      5          6           0       10.358885   15.785079   15.699926
      6          6           0        9.874421   14.660645   14.749666
      7          6           0       10.322468   14.942759   13.311204
      8          8           0       11.565343   14.697901   13.051222
      9          8           0        9.520546   15.466353   12.517965
     10          1           0       13.691378   15.330827   15.366523
     11          1           0       11.871233   16.673430   14.428362
     12          1           0        9.711454   16.660012   15.595235
     13          1           0       10.279794   15.462911   16.745298
     14          1           0       10.279115   13.692866   15.067095
     15          1           0        8.785636   14.599267   14.795244
     16          1           0       12.577025   14.442452   16.177559
     17          1           0       12.419985   14.588155   14.423827
     18          7           0       11.949410   18.510177   16.347191
     19          6           0       11.379529   19.139371   15.147668
     20          6           0       12.511647   19.460070   14.154269
     21          8           0       13.445580   20.171419   14.479805
     22          6           0       10.667986   20.450486   15.528380
     23          6           0        9.457854   20.285545   16.466992
     24          6           0        9.013293   21.663443   16.979580
     25          6           0        8.288584   19.564501   15.780415
     26          1           0       12.397338   19.139994   17.006853
     27          1           0       10.651197   18.458316   14.700703
     28          1           0       10.345185   20.941820   14.600358
     29          1           0       11.420122   21.112016   15.976461
     30          1           0        9.775837   19.685431   17.331212
     31          1           0        8.699183   22.307486   16.148596
     32          1           0        8.165408   21.568682   17.665998
     33          1           0        9.823185   22.173764   17.512831
     34          1           0        7.443888   19.454730   16.468158
     35          1           0        7.936766   20.134227   14.910849
     36          1           0        8.553079   18.558226   15.432215
     37          7           0       12.381712   18.945323   12.874421
     38          6           0       13.466517   19.156126   11.908944
     39          6           0       12.899203   19.206500   10.489139
     40          8           0       13.549671   18.906659    9.509181
     41          6           0       14.665073   18.200391   12.047252
     42          6           0       14.392870   16.687213   12.030182
     43          6           0       13.743383   16.105877   10.764943
     44          7           0       12.277228   16.275583   10.821711
     45          6           0       11.466533   16.327238    9.739664
     46          7           0       11.925318   16.761170    8.549349
     47          7           0       10.204956   15.923253    9.882163
     48          8           0       11.628468   19.621545   10.367163
     49          1           0       11.283016   19.838928   11.255153
     50          1           0       11.794358   18.130230   12.726330
     51          1           0       13.842415   20.165792   12.119698
     52          1           0       15.155500   18.454167   12.992998
     53          1           0       15.366525   18.451326   11.245426
     54          1           0       15.359126   16.187788   12.167047
     55          1           0       13.779834   16.396652   12.895509
     56          1           0       13.960010   15.032899   10.696549
     57          1           0       14.151735   16.586979    9.877568
     58          1           0       11.888366   15.720431   11.605664
     59          1           0       12.679900   17.446461    8.552566
     60          1           0       11.255673   16.878769    7.800666
     61          1           0        9.519256   16.135001    9.171174
     62          1           0        9.869638   15.640369   10.824533
 ---------------------------------------------------------------------

 SCF Done:  E(RB3LYP) =  -1447.51373218     A.U. after    1 cycles

 Alpha  occ. eigenvalues --  -19.31868 -19.26098 -19.25067 -19.24872 -19.23601
 Alpha  occ. eigenvalues --  -19.22462 -14.57402 -14.50172 -14.49214 -14.48842
 Alpha  occ. eigenvalues --  -14.48454 -14.48185 -10.45429 -10.44597 -10.42594
 Alpha  occ. eigenvalues --  -10.41872 -10.40568 -10.39270 -10.36722 -10.36345
 Alpha  occ. eigenvalues --  -10.34253 -10.33783 -10.31336 -10.31018 -10.30594
 Alpha  occ. eigenvalues --  -10.30068 -10.29033 -10.27164 -10.26005  -1.22811
 Alpha  occ. eigenvalues --   -1.17628  -1.16904  -1.16191  -1.14471  -1.13632
 Alpha  occ. eigenvalues --   -1.12251  -1.07029  -1.05993  -1.05771  -1.03130
 Alpha  occ. eigenvalues --   -1.01784  -0.93621  -0.92396  -0.91453  -0.87737
 Alpha  occ. eigenvalues --   -0.86074  -0.85006  -0.80511  -0.77808  -0.76767
 Alpha  occ. eigenvalues --   -0.76275  -0.75488  -0.74264  -0.73951  -0.72900
 Alpha  occ. eigenvalues --   -0.71269  -0.70969  -0.70387  -0.70160  -0.68264
 Alpha  occ. eigenvalues --   -0.67810  -0.66444  -0.65023  -0.62824  -0.62496
 Alpha  occ. eigenvalues --   -0.61994  -0.61300  -0.60760  -0.60373  -0.59610
 Alpha  occ. eigenvalues --   -0.59259  -0.58018  -0.57668  -0.57318  -0.56520
 Alpha  occ. eigenvalues --   -0.56096  -0.55737  -0.55428  -0.55164  -0.54554
 Alpha  occ. eigenvalues --   -0.53823  -0.53630  -0.53009  -0.52635  -0.52175
 Alpha  occ. eigenvalues --   -0.51556  -0.51272  -0.50842  -0.50450  -0.50142
 Alpha  occ. eigenvalues --   -0.49135  -0.48135  -0.47754  -0.47419  -0.47149
 Alpha  occ. eigenvalues --   -0.46583  -0.46087  -0.45995  -0.43986  -0.42901
 Alpha  occ. eigenvalues --   -0.42560  -0.42446  -0.40871  -0.40241  -0.40151
 Alpha  occ. eigenvalues --   -0.39574  -0.39019  -0.38780  -0.38259  -0.37935
 Alpha  occ. eigenvalues --   -0.36898  -0.36471
 Alpha virt. eigenvalues --   -0.12278  -0.12054  -0.11672  -0.10591  -0.09226
 Alpha virt. eigenvalues --   -0.08413  -0.06763  -0.04738  -0.03772  -0.03663
 Alpha virt. eigenvalues --   -0.03384  -0.01769  -0.00845  -0.00099   0.00103

 Mulliken charges:
               1
     1  N   -0.749426
     2  C   -0.124009
     3  C    0.614862
     4  O   -0.493830
     5  C   -0.306958
     6  C   -0.357146
     7  C    0.612762
     8  O   -0.638540
     9  O   -0.549135
    10  H    0.405046
    11  H    0.180145
    12  H    0.203273
    13  H    0.189959
    14  H    0.162669
    15  H    0.201348
    16  H    0.406758
    17  H    0.438349
    18  N   -0.578334
    19  C   -0.094467
    20  C    0.635133
    21  O   -0.483839
    22  C   -0.282443
    23  C   -0.080346
    24  C   -0.447569
    25  C   -0.463878
    26  H    0.365654
    27  H    0.151243
    28  H    0.151045
    29  H    0.177561
    30  H    0.140490
    31  H    0.152604
    32  H    0.164137
    33  H    0.155894
    34  H    0.171879
    35  H    0.153497
    36  H    0.133956
    37  N   -0.685293
    38  C   -0.070379
    39  C    0.642770
    40  O   -0.489857
    41  C   -0.276438
    42  C   -0.294780
    43  C   -0.151941
    44  N   -0.681337
    45  C    0.757786
    46  N   -0.750084
    47  N   -0.785534
    48  O   -0.562185
    49  H    0.430561
    50  H    0.354663
    51  H    0.235729
    52  H    0.177522
    53  H    0.191077
    54  H    0.175798
    55  H    0.113008
    56  H    0.183629
    57  H    0.197991
    58  H    0.412845
    59  H    0.408175
    60  H    0.361887
    61  H    0.358103
    62  H    0.427939
 Sum of Mulliken charges =   1.00000

 Dipole moment (field-independent basis, Debye):
    X=             55.3195    Y=             80.7987    Z=             62.7358  Tot=            116.2947
 Quadrupole moment (field-independent basis, Debye-Ang):
   XX=            479.7667   YY=           1208.0546   ZZ=            692.2979
   XY=            916.5866   XZ=            719.3759   YZ=           1053.7210

 Normal termination of Gaussian 16 at Tue May 24 03:33:32 2022.
