 Gaussian 16, Revision C.01,
 Gaussian 16:  ES64L-G16RevC.01  3-Jul-2019

 ----------------------------------------------------------------------
 # B3LYP/6-31G* empiricaldispersion=gd3 guess=read geom=check nosymm in
 tegral(ultrafinegrid)
 ----------------------------------------------------------------------

 ------------------------------------------------------
 Candidate Structure: Conf:950 Charge calc in gas phase
 ------------------------------------------------------
 Structure from the checkpoint file:  "conf-950.chk"
 Charge =  1 Multiplicity = 1

                          Input orientation:
 ---------------------------------------------------------------------
 Center     Atomic      Atomic             Coordinates (Angstroms)
 Number     Number       Type             X           Y           Z
 ---------------------------------------------------------------------
      1          7           0        7.818090   17.591316   15.265854
      2          6           0        8.724470   17.435741   14.061542
      3          6           0        8.277767   18.572571   13.120655
      4          8           0        7.230845   19.172154   13.391931
      5          6           0        8.605957   16.020641   13.467583
      6          6           0        9.467479   14.997896   14.236537
      7          6           0       10.870813   15.595062   14.409877
      8          8           0       11.138239   16.109015   15.528995
      9          8           0       11.617997   15.650695   13.380933
     10          1           0        7.361871   16.714684   15.533011
     11          1           0        9.738967   17.620497   14.416018
     12          1           0        8.933079   16.054912   12.427009
     13          1           0        7.548514   15.726058   13.436061
     14          1           0        9.047752   14.780704   15.224379
     15          1           0        9.508856   14.068181   13.662582
     16          1           0        8.315660   17.951428   16.085108
     17          1           0        7.106169   18.299667   14.928530
     18          7           0        9.060781   18.837879   12.065384
     19          6           0       10.413601   18.323891   11.804558
     20          6           0       11.453329   19.270261   12.417057
     21          8           0       11.380258   20.479525   12.264721
     22          6           0       10.644645   18.215073   10.284947
     23          6           0        9.864677   17.062448    9.622746
     24          6           0        9.760301   17.289304    8.108277
     25          6           0       10.514967   15.701181    9.923948
     26          1           0        8.790211   19.665779   11.541786
     27          1           0       10.519152   17.333401   12.242632
     28          1           0       11.719268   18.073381   10.109169
     29          1           0       10.389293   19.182536    9.833450
     30          1           0        8.844201   17.067154   10.035647
     31          1           0       10.757367   17.339965    7.653050
     32          1           0        9.216955   16.469400    7.626577
     33          1           0        9.236933   18.223841    7.876532
     34          1           0       11.489157   15.631454    9.422691
     35          1           0       10.690311   15.527957   10.992650
     36          1           0        9.893340   14.882826    9.544540
     37          7           0       12.490618   18.638448   13.062438
     38          6           0       13.594236   19.429573   13.609335
     39          6           0       14.922867   18.690759   13.420121
     40          8           0       15.896166   18.882532   14.116181
     41          6           0       13.401931   19.963062   15.042035
     42          6           0       13.073657   18.963095   16.162954
     43          6           0       14.083363   17.825751   16.387172
     44          7           0       13.843607   16.770918   15.393509
     45          6           0       14.729428   15.947273   14.832102
     46          7           0       16.060635   16.104251   15.008056
     47          7           0       14.261297   14.917206   14.105073
     48          8           0       14.969948   17.807596   12.403126
     49          1           0       14.096810   17.798718   11.963677
     50          1           0       12.361157   17.667337   13.358375
     51          1           0       13.656499   20.313471   12.960287
     52          1           0       12.594332   20.701393   14.991710
     53          1           0       14.316934   20.508006   15.296028
     54          1           0       13.001446   19.534799   17.095444
     55          1           0       12.085483   18.513549   16.002517
     56          1           0       13.952638   17.396534   17.387587
     57          1           0       15.102466   18.206045   16.313365
     58          1           0       12.850556   16.460155   15.385021
     59          1           0       16.388787   17.048329   15.183515
     60          1           0       16.666971   15.597217   14.376154
     61          1           0       14.901416   14.406563   13.513613
     62          1           0       13.284198   14.977893   13.787130
 ---------------------------------------------------------------------

 SCF Done:  E(RB3LYP) =  -1447.51160217     A.U. after    3 cycles

 Alpha  occ. eigenvalues --  -19.30466 -19.26948 -19.24568 -19.23352 -19.21948
 Alpha  occ. eigenvalues --  -19.21914 -14.60217 -14.50071 -14.48333 -14.47967
 Alpha  occ. eigenvalues --  -14.47680 -14.47571 -10.44674 -10.43891 -10.43040
 Alpha  occ. eigenvalues --  -10.40360 -10.40283 -10.39728 -10.35451 -10.34859
 Alpha  occ. eigenvalues --  -10.34130 -10.33391 -10.30791 -10.29710 -10.29509
 Alpha  occ. eigenvalues --  -10.29223 -10.28752 -10.26227 -10.25795  -1.21288
 Alpha  occ. eigenvalues --   -1.19413  -1.15418  -1.15255  -1.14059  -1.13190
 Alpha  occ. eigenvalues --   -1.12810  -1.06661  -1.05983  -1.04117  -1.02504
 Alpha  occ. eigenvalues --   -1.01259  -0.94357  -0.91960  -0.90396  -0.86988
 Alpha  occ. eigenvalues --   -0.86182  -0.84513  -0.79518  -0.77489  -0.77114
 Alpha  occ. eigenvalues --   -0.75862  -0.74643  -0.74081  -0.73683  -0.72669
 Alpha  occ. eigenvalues --   -0.72398  -0.71265  -0.70032  -0.69027  -0.67836
 Alpha  occ. eigenvalues --   -0.66727  -0.65770  -0.64831  -0.62711  -0.62382
 Alpha  occ. eigenvalues --   -0.61253  -0.60748  -0.60226  -0.60073  -0.59618
 Alpha  occ. eigenvalues --   -0.58122  -0.57860  -0.56807  -0.56485  -0.56335
 Alpha  occ. eigenvalues --   -0.56136  -0.55762  -0.54516  -0.54247  -0.53967
 Alpha  occ. eigenvalues --   -0.53413  -0.52716  -0.52170  -0.51775  -0.51638
 Alpha  occ. eigenvalues --   -0.50885  -0.50477  -0.50419  -0.49670  -0.49384
 Alpha  occ. eigenvalues --   -0.48807  -0.48204  -0.47574  -0.46967  -0.45740
 Alpha  occ. eigenvalues --   -0.45644  -0.45137  -0.44572  -0.42767  -0.42433
 Alpha  occ. eigenvalues --   -0.42201  -0.42060  -0.41331  -0.40162  -0.39819
 Alpha  occ. eigenvalues --   -0.39077  -0.38068  -0.37607  -0.37034  -0.36460
 Alpha  occ. eigenvalues --   -0.36097  -0.35604
 Alpha virt. eigenvalues --   -0.12648  -0.11093  -0.10412  -0.10025  -0.09513
 Alpha virt. eigenvalues --   -0.08637  -0.06301  -0.04928  -0.04206  -0.03563
 Alpha virt. eigenvalues --   -0.02568  -0.01379  -0.00617  -0.00078   0.00344

 Mulliken charges:
               1
     1  N   -0.755856
     2  C   -0.114397
     3  C    0.634899
     4  O   -0.518211
     5  C   -0.335695
     6  C   -0.316728
     7  C    0.570070
     8  O   -0.575833
     9  O   -0.595830
    10  H    0.415424
    11  H    0.235661
    12  H    0.219080
    13  H    0.175025
    14  H    0.152855
    15  H    0.190280
    16  H    0.422198
    17  H    0.432169
    18  N   -0.568088
    19  C   -0.134415
    20  C    0.624208
    21  O   -0.497234
    22  C   -0.267415
    23  C   -0.081721
    24  C   -0.447900
    25  C   -0.482022
    26  H    0.372014
    27  H    0.190796
    28  H    0.148999
    29  H    0.166729
    30  H    0.128423
    31  H    0.153505
    32  H    0.161515
    33  H    0.152716
    34  H    0.149444
    35  H    0.165483
    36  H    0.158722
    37  N   -0.702958
    38  C   -0.066719
    39  C    0.633397
    40  O   -0.488138
    41  C   -0.273187
    42  C   -0.299352
    43  C   -0.149895
    44  N   -0.657121
    45  C    0.741315
    46  N   -0.728901
    47  N   -0.780258
    48  O   -0.576414
    49  H    0.427958
    50  H    0.379335
    51  H    0.228380
    52  H    0.170127
    53  H    0.184233
    54  H    0.169187
    55  H    0.148843
    56  H    0.184825
    57  H    0.188051
    58  H    0.418287
    59  H    0.392169
    60  H    0.360650
    61  H    0.354902
    62  H    0.412418
 Sum of Mulliken charges =   1.00000

 Dipole moment (field-independent basis, Debye):
    X=             51.7138    Y=             80.3073    Z=             68.4048  Tot=            117.4853
 Quadrupole moment (field-independent basis, Debye-Ang):
   XX=            443.3438   YY=           1173.6230   ZZ=            829.6309
   XY=            857.3468   XZ=            730.1245   YZ=           1152.5302

 Normal termination of Gaussian 16 at Tue May 24 03:34:38 2022.
