 Gaussian 16, Revision C.01,
 Gaussian 16:  ES64L-G16RevC.01  3-Jul-2019

 ----------------------------------------------------------------------
 # B3LYP/6-31G* empiricaldispersion=gd3 guess=read geom=check nosymm in
 tegral(ultrafinegrid)
 ----------------------------------------------------------------------

 ------------------------------------------------------
 Candidate Structure: Conf:549 Charge calc in gas phase
 ------------------------------------------------------
 Structure from the checkpoint file:  "conf-549.chk"
 Charge =  1 Multiplicity = 1

                          Input orientation:
 ---------------------------------------------------------------------
 Center     Atomic      Atomic             Coordinates (Angstroms)
 Number     Number       Type             X           Y           Z
 ---------------------------------------------------------------------
      1          7           0        8.900507   15.853529   14.869250
      2          6           0        9.844484   15.742372   13.700499
      3          6           0        9.056466   15.804198   12.398220
      4          8           0        7.851034   15.586793   12.400235
      5          6           0       10.729523   14.498344   13.866052
      6          6           0       11.622379   14.577436   15.132050
      7          6           0       12.009160   16.045146   15.314704
      8          8           0       11.214833   16.755463   16.021625
      9          8           0       12.969184   16.503292   14.639060
     10          1           0        8.156011   16.531472   14.671249
     11          1           0       10.445774   16.644887   13.782782
     12          1           0       11.356163   14.421741   12.975463
     13          1           0       10.098021   13.601410   13.873928
     14          1           0       11.084040   14.227345   16.017829
     15          1           0       12.507396   13.953118   14.993132
     16          1           0        8.434422   14.961995   15.064067
     17          1           0        9.510531   16.166272   15.673020
     18          7           0        9.808842   16.109814   11.307985
     19          6           0       11.143419   16.737470   11.332144
     20          6           0       10.984700   18.253849   11.509557
     21          8           0       10.291864   18.907383   10.747237
     22          6           0       11.898768   16.430435   10.028459
     23          6           0       12.361774   14.964325    9.922133
     24          6           0       12.740020   14.630983    8.472325
     25          6           0       13.541779   14.675822   10.866020
     26          1           0        9.265753   16.266512   10.463329
     27          1           0       11.719670   16.327732   12.161873
     28          1           0       12.772709   17.093042    9.970488
     29          1           0       11.252217   16.708043    9.186683
     30          1           0       11.515253   14.323086   10.209395
     31          1           0       13.558432   15.274163    8.125240
     32          1           0       13.073580   13.591595    8.383726
     33          1           0       11.890838   14.771920    7.794334
     34          1           0       14.427570   15.243108   10.553040
     35          1           0       13.340660   14.942670   11.911855
     36          1           0       13.806358   13.613370   10.842435
     37          7           0       11.697432   18.821099   12.549493
     38          6           0       11.557539   20.259155   12.796818
     39          6           0       12.870431   20.854358   13.306351
     40          8           0       12.920796   21.876211   13.957813
     41          6           0       10.338908   20.673652   13.643970
     42          6           0       10.168428   20.053220   15.040270
     43          6           0       11.299193   20.301641   16.052002
     44          7           0       12.388959   19.346674   15.806947
     45          6           0       13.697541   19.525770   16.021759
     46          7           0       14.214459   20.749188   16.264877
     47          7           0       14.488603   18.440846   16.025630
     48          8           0       13.996063   20.195679   12.975589
     49          1           0       13.756331   19.418972   12.433012
     50          1           0       12.063114   18.224686   13.292454
     51          1           0       11.401754   20.700845   11.803549
     52          1           0        9.453025   20.432162   13.046847
     53          1           0       10.374608   21.763955   13.734468
     54          1           0        9.244552   20.463214   15.464537
     55          1           0       10.012469   18.967879   14.964422
     56          1           0       10.930359   20.151248   17.073670
     57          1           0       11.657738   21.327408   15.971459
     58          1           0       12.059872   18.367573   15.848578
     59          1           0       13.743902   21.537977   15.829278
     60          1           0       15.222675   20.833222   16.243353
     61          1           0       15.488984   18.563167   15.954244
     62          1           0       14.094855   17.582481   15.618677
 ---------------------------------------------------------------------

 SCF Done:  E(RB3LYP) =  -1447.51433086     A.U. after    2 cycles

 Alpha  occ. eigenvalues --  -19.31311 -19.25414 -19.25137 -19.23993 -19.23681
 Alpha  occ. eigenvalues --  -19.23045 -14.59230 -14.49110 -14.48945 -14.48914
 Alpha  occ. eigenvalues --  -14.48627 -14.48350 -10.45456 -10.43944 -10.42598
 Alpha  occ. eigenvalues --  -10.41018 -10.41001 -10.39394 -10.35866 -10.35668
 Alpha  occ. eigenvalues --  -10.34277 -10.33981 -10.31149 -10.30843 -10.30132
 Alpha  occ. eigenvalues --  -10.29657 -10.28803 -10.26814 -10.25812  -1.22152
 Alpha  occ. eigenvalues --   -1.17682  -1.16534  -1.16066  -1.14045  -1.13620
 Alpha  occ. eigenvalues --   -1.13420  -1.07220  -1.05676  -1.04893  -1.03346
 Alpha  occ. eigenvalues --   -1.01990  -0.94132  -0.92074  -0.91126  -0.87411
 Alpha  occ. eigenvalues --   -0.86198  -0.84756  -0.80329  -0.77454  -0.77232
 Alpha  occ. eigenvalues --   -0.75951  -0.75376  -0.74738  -0.73566  -0.72455
 Alpha  occ. eigenvalues --   -0.71768  -0.71082  -0.70790  -0.69911  -0.67986
 Alpha  occ. eigenvalues --   -0.67582  -0.66072  -0.65279  -0.62671  -0.62045
 Alpha  occ. eigenvalues --   -0.61951  -0.60976  -0.60884  -0.60530  -0.59471
 Alpha  occ. eigenvalues --   -0.58617  -0.58138  -0.57562  -0.57114  -0.56711
 Alpha  occ. eigenvalues --   -0.56238  -0.55911  -0.55172  -0.55000  -0.54143
 Alpha  occ. eigenvalues --   -0.53947  -0.53381  -0.52928  -0.52587  -0.51955
 Alpha  occ. eigenvalues --   -0.51163  -0.50957  -0.50718  -0.50184  -0.49550
 Alpha  occ. eigenvalues --   -0.48971  -0.48288  -0.47930  -0.47196  -0.46715
 Alpha  occ. eigenvalues --   -0.46170  -0.45800  -0.45650  -0.43532  -0.42591
 Alpha  occ. eigenvalues --   -0.42262  -0.42173  -0.40601  -0.40057  -0.39752
 Alpha  occ. eigenvalues --   -0.39430  -0.38736  -0.38604  -0.38156  -0.37683
 Alpha  occ. eigenvalues --   -0.36913  -0.36340
 Alpha virt. eigenvalues --   -0.12032  -0.11275  -0.10876  -0.10385  -0.09930
 Alpha virt. eigenvalues --   -0.09272  -0.05339  -0.04930  -0.03947  -0.03140
 Alpha virt. eigenvalues --   -0.02604  -0.01933  -0.01068  -0.00461   0.00186

 Mulliken charges:
               1
     1  N   -0.738996
     2  C   -0.150811
     3  C    0.614848
     4  O   -0.494852
     5  C   -0.301894
     6  C   -0.336051
     7  C    0.591551
     8  O   -0.610412
     9  O   -0.586948
    10  H    0.413964
    11  H    0.212259
    12  H    0.210787
    13  H    0.184130
    14  H    0.163947
    15  H    0.195948
    16  H    0.411322
    17  H    0.432313
    18  N   -0.576672
    19  C   -0.118126
    20  C    0.634478
    21  O   -0.492363
    22  C   -0.269772
    23  C   -0.083341
    24  C   -0.448180
    25  C   -0.469443
    26  H    0.366083
    27  H    0.168516
    28  H    0.151338
    29  H    0.171100
    30  H    0.136364
    31  H    0.153436
    32  H    0.161920
    33  H    0.155037
    34  H    0.154459
    35  H    0.144156
    36  H    0.165316
    37  N   -0.703051
    38  C   -0.068092
    39  C    0.639228
    40  O   -0.491236
    41  C   -0.274596
    42  C   -0.295064
    43  C   -0.148058
    44  N   -0.659913
    45  C    0.745662
    46  N   -0.733349
    47  N   -0.776058
    48  O   -0.571540
    49  H    0.429867
    50  H    0.370305
    51  H    0.234409
    52  H    0.174838
    53  H    0.188045
    54  H    0.173578
    55  H    0.122248
    56  H    0.185389
    57  H    0.193055
    58  H    0.416029
    59  H    0.398805
    60  H    0.361707
    61  H    0.357645
    62  H    0.414735
 Sum of Mulliken charges =   1.00000

 Dipole moment (field-independent basis, Debye):
    X=             56.0787    Y=             82.5620    Z=             69.6738  Tot=            121.7199
 Quadrupole moment (field-independent basis, Debye-Ang):
   XX=            515.7088   YY=           1276.6068   ZZ=            857.5576
   XY=            979.1741   XZ=            806.3440   YZ=           1211.5594

 Normal termination of Gaussian 16 at Tue May 24 03:33:50 2022.
