 Gaussian 16, Revision C.01,
 Gaussian 16:  ES64L-G16RevC.01  3-Jul-2019

 ----------------------------------------------------------------------
 # B3LYP/6-31G* empiricaldispersion=gd3 guess=read geom=check nosymm in
 tegral(ultrafinegrid)
 ----------------------------------------------------------------------

 ------------------------------------------------------
 Candidate Structure: Conf:727 Charge calc in gas phase
 ------------------------------------------------------
 Structure from the checkpoint file:  "conf-727.chk"
 Charge =  1 Multiplicity = 1

                          Input orientation:
 ---------------------------------------------------------------------
 Center     Atomic      Atomic             Coordinates (Angstroms)
 Number     Number       Type             X           Y           Z
 ---------------------------------------------------------------------
      1          7           0       -7.711842   20.312606    9.008424
      2          6           0       -6.933331   20.247522   10.236045
      3          6           0       -6.388633   18.827912   10.400742
      4          8           0       -6.703912   17.910170    9.647578
      5          6           0       -7.851466   20.608940   11.441429
      6          6           0       -8.349410   22.033918   11.363035
      7          6           0       -9.493484   22.357437   10.620404
      8          6           0       -7.640789   23.065612   11.992927
      9          6           0       -9.917306   23.682822   10.511797
     10          6           0       -8.062905   24.391391   11.886552
     11          6           0       -9.203943   24.703173   11.144543
     12          1           0       -6.075818   20.944082   10.251995
     13          1           0       -8.692471   19.905088   11.417069
     14          1           0       -7.313621   20.463619   12.384760
     15          1           0      -10.039776   21.564255   10.118184
     16          1           0       -6.752869   22.828452   12.576536
     17          1           0      -10.806974   23.918557    9.934114
     18          1           0       -7.504480   25.178817   12.385320
     19          1           0       -9.536309   25.734133   11.062390
     20          1           0       -7.313880   19.707320    8.295916
     21          1           0       -7.742435   21.265729    8.660290
     22          7           0       -5.574678   18.565978   11.484995
     23          6           0       -4.995300   17.216970   11.567278
     24          6           0       -6.034451   16.124431   11.751474
     25          8           0       -5.780651   14.948692   11.447389
     26          6           0       -4.011770   17.312314   12.751064
     27          6           0       -3.538535   18.771300   12.671735
     28          6           0       -4.823087   19.532596   12.314997
     29          1           0       -4.475359   16.967483   10.636180
     30          1           0       -4.541406   17.135034   13.695325
     31          1           0       -3.208223   16.578025   12.667924
     32          1           0       -3.086956   19.127987   13.601119
     33          1           0       -2.800899   18.884142   11.869366
     34          1           0       -4.634180   20.457754   11.765607
     35          1           0       -5.391533   19.787034   13.218262
     36          7           0       -7.214276   16.478737   12.314038
     37          6           0       -8.273289   15.515698   12.602130
     38          6           0       -8.920431   14.959583   11.309229
     39          8           0      -10.130236   15.017643   11.088196
     40          6           0       -9.248809   16.142186   13.616005
     41          6           0      -10.576175   15.404977   13.884171
     42          6           0      -10.498980   13.870378   14.076043
     43          6           0      -11.748134   13.161273   13.545666
     44          7           0      -11.698897   13.058826   12.024700
     45          8           0       -8.121774   14.324220   10.486674
     46          1           0       -7.158307   14.397930   10.785710
     47          1           0       -7.427123   17.466954   12.372954
     48          1           0       -7.777218   14.646006   13.056186
     49          1           0       -9.508587   17.152516   13.275511
     50          1           0       -8.685427   16.262514   14.548581
     51          1           0      -11.029668   15.844728   14.779356
     52          1           0      -11.252154   15.635527   13.058675
     53          1           0      -10.400454   13.617127   15.136756
     54          1           0       -9.617424   13.431473   13.591316
     55          1           0      -11.852197   12.141996   13.924055
     56          1           0      -12.655494   13.718327   13.791127
     57          1           0      -11.128749   12.258441   11.731978
     58          1           0      -11.232837   13.904281   11.587541
     59          1           0      -12.628450   12.935117   11.611421
 ---------------------------------------------------------------------

 SCF Done:  E(RB3LYP) =  -1300.59553170     A.U. after    1 cycles

 Alpha  occ. eigenvalues --  -19.29817 -19.26510 -19.23971 -19.20822 -14.60141
 Alpha  occ. eigenvalues --  -14.48401 -14.46078 -14.38076 -10.44805 -10.40697
 Alpha  occ. eigenvalues --  -10.40219 -10.37515 -10.36854 -10.34119 -10.33130
 Alpha  occ. eigenvalues --  -10.32148 -10.31999 -10.31851 -10.30669 -10.29173
 Alpha  occ. eigenvalues --  -10.28627 -10.27051 -10.26098 -10.25248 -10.25034
 Alpha  occ. eigenvalues --  -10.24935 -10.24818 -10.24804  -1.22155  -1.15953
 Alpha  occ. eigenvalues --   -1.14878  -1.13233  -1.12899  -1.05213  -1.03580
 Alpha  occ. eigenvalues --   -0.96174  -0.94832  -0.91484  -0.90511  -0.89137
 Alpha  occ. eigenvalues --   -0.86097  -0.84467  -0.83510  -0.80398  -0.79114
 Alpha  occ. eigenvalues --   -0.78956  -0.75490  -0.74630  -0.73795  -0.72595
 Alpha  occ. eigenvalues --   -0.71667  -0.71151  -0.70369  -0.68921  -0.66730
 Alpha  occ. eigenvalues --   -0.66601  -0.65561  -0.64640  -0.64224  -0.62446
 Alpha  occ. eigenvalues --   -0.60265  -0.60026  -0.59451  -0.59233  -0.57479
 Alpha  occ. eigenvalues --   -0.57165  -0.56993  -0.55688  -0.55449  -0.54779
 Alpha  occ. eigenvalues --   -0.54396  -0.53453  -0.53108  -0.52945  -0.51850
 Alpha  occ. eigenvalues --   -0.51715  -0.51427  -0.50810  -0.50247  -0.50067
 Alpha  occ. eigenvalues --   -0.49300  -0.48551  -0.47972  -0.47842  -0.47167
 Alpha  occ. eigenvalues --   -0.46828  -0.46521  -0.46295  -0.45343  -0.44813
 Alpha  occ. eigenvalues --   -0.44488  -0.44306  -0.43549  -0.43417  -0.41545
 Alpha  occ. eigenvalues --   -0.41047  -0.40277  -0.40010  -0.37995  -0.37211
 Alpha  occ. eigenvalues --   -0.34667  -0.33857  -0.31178  -0.30887  -0.29997
 Alpha virt. eigenvalues --   -0.13120  -0.11342  -0.09816  -0.07688  -0.06406
 Alpha virt. eigenvalues --   -0.06277  -0.06133  -0.04626  -0.03253  -0.02563
 Alpha virt. eigenvalues --   -0.02041  -0.01252  -0.00146   0.00856   0.01415

 Mulliken charges:
               1
     1  N   -0.728350
     2  C   -0.045819
     3  C    0.568900
     4  O   -0.510183
     5  C   -0.350053
     6  C    0.152659
     7  C   -0.178372
     8  C   -0.184303
     9  C   -0.131718
    10  C   -0.127837
    11  C   -0.127795
    12  H    0.143310
    13  H    0.147740
    14  H    0.135988
    15  H    0.145691
    16  H    0.115365
    17  H    0.141437
    18  H    0.140885
    19  H    0.143704
    20  H    0.326379
    21  H    0.316821
    22  N   -0.499324
    23  C   -0.004086
    24  C    0.646908
    25  O   -0.574703
    26  C   -0.306214
    27  C   -0.301034
    28  C   -0.133314
    29  H    0.200167
    30  H    0.154115
    31  H    0.189657
    32  H    0.173900
    33  H    0.173245
    34  H    0.179537
    35  H    0.162744
    36  N   -0.601128
    37  C   -0.076309
    38  C    0.638500
    39  O   -0.530054
    40  C   -0.298270
    41  C   -0.287507
    42  C   -0.296779
    43  C   -0.195870
    44  N   -0.769764
    45  O   -0.549005
    46  H    0.472898
    47  H    0.362933
    48  H    0.193690
    49  H    0.172362
    50  H    0.175501
    51  H    0.174960
    52  H    0.169256
    53  H    0.200943
    54  H    0.157651
    55  H    0.215080
    56  H    0.220844
    57  H    0.412455
    58  H    0.466450
    59  H    0.415116
 Sum of Mulliken charges =   1.00000

 Dipole moment (field-independent basis, Debye):
    X=            -46.2065    Y=             73.6343    Z=             63.2545  Tot=            107.5090
 Quadrupole moment (field-independent basis, Debye-Ang):
   XX=            339.1265   YY=           1036.0950   ZZ=            667.9318
   XY=           -656.2013   XZ=           -604.6561   YZ=            963.0897

 Normal termination of Gaussian 16 at Wed May 25 08:34:58 2022.
