 Gaussian 16, Revision C.01,
 Gaussian 16:  ES64L-G16RevC.01  3-Jul-2019

 ----------------------------------------------------------------------
 # B3LYP/6-31G* empiricaldispersion=gd3 guess=read geom=check nosymm in
 tegral(ultrafinegrid)
 ----------------------------------------------------------------------

 ------------------------------------------------------
 Candidate Structure: Conf:555 Charge calc in gas phase
 ------------------------------------------------------
 Structure from the checkpoint file:  "conf-555.chk"
 Charge =  1 Multiplicity = 1

                          Input orientation:
 ---------------------------------------------------------------------
 Center     Atomic      Atomic             Coordinates (Angstroms)
 Number     Number       Type             X           Y           Z
 ---------------------------------------------------------------------
      1          7           0       -9.531300   19.291236   12.613322
      2          6           0       -8.546615   19.942897   11.706576
      3          6           0       -8.267886   18.906704   10.591584
      4          8           0       -9.095803   18.001116   10.414465
      5          6           0       -7.319188   20.433388   12.521220
      6          6           0       -7.714813   21.102124   13.821953
      7          6           0       -7.659238   20.390735   15.029356
      8          6           0       -8.177965   22.425341   13.832107
      9          6           0       -8.053514   20.997060   16.224040
     10          6           0       -8.573783   23.030167   15.025564
     11          6           0       -8.511658   22.316042   16.224773
     12          1           0       -9.010082   20.819577   11.227605
     13          1           0       -6.660834   19.587540   12.725844
     14          1           0       -6.768847   21.151823   11.910696
     15          1           0       -7.302357   19.364087   15.022697
     16          1           0       -8.216277   22.990037   12.902278
     17          1           0       -7.996929   20.439950   17.155031
     18          1           0       -8.922069   24.059108   15.021024
     19          1           0       -8.814082   22.787955   17.155125
     20          1           0      -10.402132   19.144207   12.105376
     21          1           0       -9.717233   19.915899   13.398301
     22          7           0       -7.127745   18.937594    9.851423
     23          6           0       -6.881924   17.824992    8.897137
     24          6           0       -7.059154   16.479045    9.607711
     25          8           0       -7.836405   15.626311    9.173733
     26          6           0       -5.480196   18.137149    8.349091
     27          6           0       -5.448946   19.672435    8.359685
     28          6           0       -6.135231   20.024521    9.686528
     29          1           0       -7.636612   17.836724    8.105327
     30          1           0       -4.707738   17.733987    9.015544
     31          1           0       -5.328486   17.700890    7.359479
     32          1           0       -4.438351   20.083625    8.298745
     33          1           0       -6.028873   20.066950    7.518107
     34          1           0       -6.629033   20.999197    9.663433
     35          1           0       -5.416484   20.016579   10.512756
     36          7           0       -6.382031   16.316343   10.792986
     37          6           0       -7.129562   15.615002   11.842720
     38          6           0       -7.553034   16.685858   12.851747
     39          8           0       -6.742640   17.420206   13.383047
     40          6           0       -6.591621   14.324875   12.455745
     41          6           0       -7.814548   13.476012   12.876109
     42          6           0       -8.756265   13.092578   11.691044
     43          6           0      -10.120185   13.799553   11.548651
     44          7           0      -10.099448   15.208720   10.967183
     45          8           0       -8.880613   16.804524   12.985198
     46          1           0       -9.132142   17.850521   13.035553
     47          1           0       -5.824259   17.098324   11.119934
     48          1           0       -8.000102   15.297432   11.308325
     49          1           0       -5.930698   14.516576   13.307313
     50          1           0       -6.010807   13.791778   11.694849
     51          1           0       -7.456542   12.555981   13.347566
     52          1           0       -8.385253   14.007759   13.650010
     53          1           0       -9.028911   12.037081   11.802550
     54          1           0       -8.220896   13.156165   10.734775
     55          1           0      -10.752447   13.219228   10.872631
     56          1           0      -10.629865   13.881285   12.512376
     57          1           0       -9.771793   15.916219   11.666179
     58          1           0      -11.036216   15.490432   10.664476
     59          1           0       -9.463107   15.300397   10.147018
 ---------------------------------------------------------------------

 SCF Done:  E(RB3LYP) =  -1300.61667520     A.U. after    3 cycles

 Alpha  occ. eigenvalues --  -19.28530 -19.25059 -19.24395 -19.24065 -14.56548
 Alpha  occ. eigenvalues --  -14.49010 -14.47832 -14.46813 -10.42884 -10.41347
 Alpha  occ. eigenvalues --  -10.41211 -10.37770 -10.35435 -10.34921 -10.34420
 Alpha  occ. eigenvalues --  -10.34176 -10.31818 -10.30715 -10.30239 -10.30213
 Alpha  occ. eigenvalues --  -10.29740 -10.29386 -10.28426 -10.27420 -10.27093
 Alpha  occ. eigenvalues --  -10.27000 -10.26942 -10.26865  -1.20122  -1.16697
 Alpha  occ. eigenvalues --   -1.15449  -1.11955  -1.11024  -1.06500  -1.04224
 Alpha  occ. eigenvalues --   -1.02619  -0.93866  -0.92933  -0.91516  -0.89111
 Alpha  occ. eigenvalues --   -0.87683  -0.86495  -0.82540  -0.82294  -0.82080
 Alpha  occ. eigenvalues --   -0.77505  -0.76932  -0.74472  -0.72590  -0.71966
 Alpha  occ. eigenvalues --   -0.70907  -0.70282  -0.69378  -0.68802  -0.68751
 Alpha  occ. eigenvalues --   -0.67644  -0.66486  -0.64146  -0.63545  -0.62386
 Alpha  occ. eigenvalues --   -0.61394  -0.60964  -0.60185  -0.59403  -0.58735
 Alpha  occ. eigenvalues --   -0.58518  -0.57953  -0.57410  -0.55593  -0.55451
 Alpha  occ. eigenvalues --   -0.54950  -0.54319  -0.54120  -0.53514  -0.53223
 Alpha  occ. eigenvalues --   -0.52918  -0.52699  -0.52237  -0.51407  -0.50087
 Alpha  occ. eigenvalues --   -0.49935  -0.49898  -0.49180  -0.48799  -0.48524
 Alpha  occ. eigenvalues --   -0.48336  -0.46917  -0.46600  -0.46278  -0.45733
 Alpha  occ. eigenvalues --   -0.45437  -0.44905  -0.44642  -0.43988  -0.42870
 Alpha  occ. eigenvalues --   -0.42391  -0.41921  -0.40174  -0.39284  -0.38226
 Alpha  occ. eigenvalues --   -0.37630  -0.36688  -0.36425  -0.33220  -0.32800
 Alpha virt. eigenvalues --   -0.13144  -0.10907  -0.10067  -0.08623  -0.08403
 Alpha virt. eigenvalues --   -0.07659  -0.04219  -0.02757  -0.01759  -0.01383
 Alpha virt. eigenvalues --   -0.00331  -0.00066   0.00811   0.01229   0.01460

 Mulliken charges:
               1
     1  N   -0.786493
     2  C   -0.070832
     3  C    0.626287
     4  O   -0.578157
     5  C   -0.376721
     6  C    0.110000
     7  C   -0.195502
     8  C   -0.181170
     9  C   -0.129970
    10  C   -0.128561
    11  C   -0.126406
    12  H    0.179980
    13  H    0.195954
    14  H    0.163729
    15  H    0.164700
    16  H    0.127747
    17  H    0.149747
    18  H    0.151072
    19  H    0.152704
    20  H    0.344890
    21  H    0.362739
    22  N   -0.480258
    23  C   -0.019529
    24  C    0.623112
    25  O   -0.547377
    26  C   -0.317864
    27  C   -0.304799
    28  C   -0.138766
    29  H    0.194823
    30  H    0.166569
    31  H    0.193035
    32  H    0.183686
    33  H    0.175905
    34  H    0.180306
    35  H    0.179644
    36  N   -0.581764
    37  C   -0.014842
    38  C    0.610102
    39  O   -0.463548
    40  C   -0.285491
    41  C   -0.293534
    42  C   -0.312659
    43  C   -0.182779
    44  N   -0.811348
    45  O   -0.650548
    46  H    0.474506
    47  H    0.345093
    48  H    0.131694
    49  H    0.179453
    50  H    0.175903
    51  H    0.179709
    52  H    0.159958
    53  H    0.190532
    54  H    0.191600
    55  H    0.205609
    56  H    0.207410
    57  H    0.450311
    58  H    0.400043
    59  H    0.450364
 Sum of Mulliken charges =   1.00000

 Dipole moment (field-independent basis, Debye):
    X=            -42.1400    Y=             83.0516    Z=             53.7901  Tot=            107.5487
 Quadrupole moment (field-independent basis, Debye-Ang):
   XX=            231.9930   YY=           1330.9580   ZZ=            456.9283
   XY=           -716.2051   XZ=           -485.5643   YZ=            927.6147

 Normal termination of Gaussian 16 at Wed May 25 08:35:21 2022.
