 Gaussian 16, Revision C.01,
 Gaussian 16:  ES64L-G16RevC.01  3-Jul-2019

 ----------------------------------------------------------------------
 # B3LYP/6-31G* empiricaldispersion=gd3 guess=read geom=check nosymm in
 tegral(ultrafinegrid)
 ----------------------------------------------------------------------

 ------------------------------------------------------
 Candidate Structure: Conf:879 Charge calc in gas phase
 ------------------------------------------------------
 Structure from the checkpoint file:  "conf-879.chk"
 Charge =  1 Multiplicity = 1

                          Input orientation:
 ---------------------------------------------------------------------
 Center     Atomic      Atomic             Coordinates (Angstroms)
 Number     Number       Type             X           Y           Z
 ---------------------------------------------------------------------
      1          7           0       -6.579865   16.174331    9.680232
      2          6           0       -7.214315   17.486466    9.620749
      3          6           0       -6.403562   18.462581   10.472429
      4          8           0       -5.568064   18.073722   11.301325
      5          6           0       -8.659783   17.365558   10.189240
      6          6           0       -9.537975   16.503837    9.311637
      7          6           0       -9.634067   15.122543    9.529647
      8          6           0      -10.233455   17.063908    8.231537
      9          6           0      -10.406269   14.320623    8.687020
     10          6           0      -11.007802   16.266165    7.389076
     11          6           0      -11.095470   14.890499    7.615034
     12          1           0       -7.286457   17.902258    8.600221
     13          1           0       -8.571529   16.939548   11.192453
     14          1           0       -9.105521   18.362418   10.290826
     15          1           0       -9.093389   14.678781   10.361720
     16          1           0      -10.173612   18.136109    8.052120
     17          1           0      -10.472179   13.251532    8.869742
     18          1           0      -11.545222   16.717444    6.559691
     19          1           0      -11.699539   14.268057    6.961232
     20          1           0       -5.588745   16.247222    9.462432
     21          1           0       -7.006881   15.567928    8.983734
     22          7           0       -6.652954   19.795830   10.335840
     23          6           0       -5.851042   20.760962   11.116728
     24          6           0       -6.083599   20.656951   12.630997
     25          8           0       -5.219396   20.982705   13.421344
     26          6           0       -6.232822   22.135420   10.516250
     27          6           0       -7.593842   21.888742    9.846089
     28          6           0       -7.453320   20.467471    9.291626
     29          1           0       -4.786207   20.545479   11.000582
     30          1           0       -6.253812   22.921551   11.274632
     31          1           0       -5.487533   22.418844    9.766163
     32          1           0       -8.399119   21.919419   10.590229
     33          1           0       -7.827088   22.618358    9.066736
     34          1           0       -6.911187   20.461864    8.336760
     35          1           0       -8.412885   19.970552    9.141580
     36          7           0       -7.332496   20.195099   13.036030
     37          6           0       -7.428505   19.464494   14.303130
     38          6           0       -7.144619   18.035169   13.871831
     39          8           0       -8.011112   17.243669   13.518846
     40          6           0       -8.771762   19.639511   15.024072
     41          6           0       -9.105685   18.502992   16.017171
     42          6           0       -7.952810   18.058544   16.959716
     43          6           0       -7.848488   16.542668   17.142664
     44          7           0       -7.307134   15.855464   15.891022
     45          8           0       -5.835080   17.721825   13.875036
     46          1           0       -5.619594   17.327599   12.987910
     47          1           0       -7.927202   19.842920   12.292789
     48          1           0       -6.593494   19.822528   14.908419
     49          1           0       -9.579982   19.684710   14.286249
     50          1           0       -8.752783   20.610465   15.530161
     51          1           0       -9.962263   18.810587   16.624895
     52          1           0       -9.454041   17.647066   15.429699
     53          1           0       -8.096073   18.479120   17.960760
     54          1           0       -6.975910   18.436525   16.633798
     55          1           0       -7.161015   16.273852   17.948132
     56          1           0       -8.821773   16.086266   17.340285
     57          1           0       -6.365721   16.198643   15.650376
     58          1           0       -7.873018   16.062899   15.044552
     59          1           0       -7.253827   14.838418   16.008656
 ---------------------------------------------------------------------

 SCF Done:  E(RB3LYP) =  -1300.58597256     A.U. after    1 cycles

 Alpha  occ. eigenvalues --  -19.30593 -19.27830 -19.22555 -19.21702 -14.61351
 Alpha  occ. eigenvalues --  -14.47224 -14.46933 -14.39842 -10.45088 -10.40612
 Alpha  occ. eigenvalues --  -10.39152 -10.38749 -10.35136 -10.33992 -10.32898
 Alpha  occ. eigenvalues --  -10.32690 -10.31867 -10.31686 -10.30726 -10.28974
 Alpha  occ. eigenvalues --  -10.28884 -10.27955 -10.27315 -10.26386 -10.26215
 Alpha  occ. eigenvalues --  -10.26161 -10.26147 -10.25945  -1.22825  -1.15785
 Alpha  occ. eigenvalues --   -1.14656  -1.14057  -1.13527  -1.04978  -1.03237
 Alpha  occ. eigenvalues --   -0.97711  -0.94733  -0.92700  -0.90101  -0.89505
 Alpha  occ. eigenvalues --   -0.86082  -0.85405  -0.83449  -0.81619  -0.80235
 Alpha  occ. eigenvalues --   -0.79359  -0.75707  -0.74885  -0.74034  -0.73478
 Alpha  occ. eigenvalues --   -0.72140  -0.70891  -0.68983  -0.68555  -0.67815
 Alpha  occ. eigenvalues --   -0.66481  -0.65476  -0.65292  -0.63869  -0.62234
 Alpha  occ. eigenvalues --   -0.61059  -0.60302  -0.59938  -0.58722  -0.58553
 Alpha  occ. eigenvalues --   -0.58227  -0.57289  -0.57013  -0.55814  -0.54719
 Alpha  occ. eigenvalues --   -0.54320  -0.53956  -0.53430  -0.52935  -0.52435
 Alpha  occ. eigenvalues --   -0.51965  -0.51747  -0.50925  -0.50496  -0.49712
 Alpha  occ. eigenvalues --   -0.49374  -0.49169  -0.48859  -0.48150  -0.47726
 Alpha  occ. eigenvalues --   -0.47146  -0.46755  -0.46092  -0.45864  -0.45597
 Alpha  occ. eigenvalues --   -0.45221  -0.44331  -0.43799  -0.43560  -0.42687
 Alpha  occ. eigenvalues --   -0.41413  -0.41182  -0.41116  -0.37101  -0.36208
 Alpha  occ. eigenvalues --   -0.35733  -0.34014  -0.32678  -0.32267  -0.31348
 Alpha virt. eigenvalues --   -0.15270  -0.11491  -0.09676  -0.07677  -0.07445
 Alpha virt. eigenvalues --   -0.07245  -0.05599  -0.04386  -0.03724  -0.02793
 Alpha virt. eigenvalues --   -0.01594  -0.01447  -0.00242   0.00428   0.00980

 Mulliken charges:
               1
     1  N   -0.728123
     2  C   -0.049431
     3  C    0.595310
     4  O   -0.564965
     5  C   -0.376518
     6  C    0.155049
     7  C   -0.185421
     8  C   -0.183188
     9  C   -0.128540
    10  C   -0.126728
    11  C   -0.127623
    12  H    0.145165
    13  H    0.186010
    14  H    0.134337
    15  H    0.133272
    16  H    0.121560
    17  H    0.142166
    18  H    0.146023
    19  H    0.147950
    20  H    0.314722
    21  H    0.320207
    22  N   -0.483390
    23  C   -0.026287
    24  C    0.611689
    25  O   -0.479806
    26  C   -0.315043
    27  C   -0.299707
    28  C   -0.145287
    29  H    0.205026
    30  H    0.188971
    31  H    0.177548
    32  H    0.158742
    33  H    0.179666
    34  H    0.178027
    35  H    0.176532
    36  N   -0.615126
    37  C   -0.023403
    38  C    0.558791
    39  O   -0.495316
    40  C   -0.270992
    41  C   -0.310687
    42  C   -0.303937
    43  C   -0.201992
    44  N   -0.762561
    45  O   -0.590552
    46  H    0.464073
    47  H    0.341417
    48  H    0.213789
    49  H    0.167922
    50  H    0.181804
    51  H    0.181872
    52  H    0.157584
    53  H    0.207548
    54  H    0.179098
    55  H    0.219669
    56  H    0.222691
    57  H    0.420421
    58  H    0.440790
    59  H    0.419179
 Sum of Mulliken charges =   1.00000

 Dipole moment (field-independent basis, Debye):
    X=            -38.7230    Y=             82.4470    Z=             67.0212  Tot=            113.0877
 Quadrupole moment (field-independent basis, Debye-Ang):
   XX=            146.9588   YY=           1284.8174   ZZ=            851.1910
   XY=           -671.8661   XZ=           -538.3048   YZ=           1122.2492

 Normal termination of Gaussian 16 at Wed May 25 08:34:58 2022.
