 Gaussian 16, Revision C.01,
 Gaussian 16:  ES64L-G16RevC.01  3-Jul-2019

 ----------------------------------------------------------------------
 # B3LYP/6-31G* empiricaldispersion=gd3 guess=read geom=check nosymm in
 tegral(ultrafinegrid)
 ----------------------------------------------------------------------

 ------------------------------------------------------
 Candidate Structure: Conf:607 Charge calc in gas phase
 ------------------------------------------------------
 Structure from the checkpoint file:  "conf-607.chk"
 Charge =  1 Multiplicity = 1

                          Input orientation:
 ---------------------------------------------------------------------
 Center     Atomic      Atomic             Coordinates (Angstroms)
 Number     Number       Type             X           Y           Z
 ---------------------------------------------------------------------
      1          7           0       -8.089625   16.385969   14.789840
      2          6           0       -9.092407   17.106993   14.020495
      3          6           0       -9.071960   16.595201   12.579541
      4          8           0       -8.228290   15.798918   12.175518
      5          6           0       -8.759004   18.628523   14.047830
      6          6           0       -8.841783   19.198991   15.445076
      7          6           0       -7.749379   19.121822   16.320180
      8          6           0      -10.035295   19.770480   15.905706
      9          6           0       -7.850486   19.605967   17.625323
     10          6           0      -10.138684   20.255928   17.209888
     11          6           0       -9.044649   20.174576   18.073721
     12          1           0      -10.119033   16.985408   14.410232
     13          1           0       -7.742725   18.733836   13.648492
     14          1           0       -9.441546   19.177868   13.389997
     15          1           0       -6.825657   18.667252   15.973958
     16          1           0      -10.890445   19.840844   15.235629
     17          1           0       -6.994933   19.540943   18.292108
     18          1           0      -11.070132   20.700515   17.549586
     19          1           0       -9.121609   20.554273   19.088614
     20          1           0       -8.007873   15.426036   14.466985
     21          1           0       -8.331817   16.389114   15.775690
     22          7           0       -9.992873   17.115774   11.692341
     23          6           0      -10.003648   16.544209   10.337549
     24          6           0       -8.718022   16.795728    9.568395
     25          8           0       -8.395111   16.070646    8.615042
     26          6           0      -11.235227   17.194592    9.676013
     27          6           0      -12.193400   17.372606   10.863166
     28          6           0      -11.259573   17.815524   11.998467
     29          1           0      -10.104528   15.454614   10.383540
     30          1           0      -10.964560   18.171137    9.255736
     31          1           0      -11.634500   16.575531    8.870310
     32          1           0      -12.987635   18.098279   10.669565
     33          1           0      -12.661508   16.414506   11.115246
     34          1           0      -11.629736   17.541278   12.989063
     35          1           0      -11.111658   18.902561   11.983024
     36          7           0       -7.980677   17.873280    9.928928
     37          6           0       -6.753924   18.257595    9.236639
     38          6           0       -5.609217   17.242412    9.478459
     39          8           0       -4.511828   17.566744    9.932646
     40          6           0       -6.427130   19.721907    9.584638
     41          6           0       -5.046576   20.267514    9.168035
     42          6           0       -4.559074   19.924070    7.738964
     43          6           0       -3.037729   19.763349    7.674139
     44          7           0       -2.619496   18.407484    8.233630
     45          8           0       -5.829538   16.012974    9.080458
     46          1           0       -6.785245   15.896850    8.771169
     47          1           0       -8.195091   18.312006   10.816025
     48          1           0       -6.972867   18.173673    8.162652
     49          1           0       -6.505712   19.850884   10.671556
     50          1           0       -7.225446   20.327541    9.140311
     51          1           0       -5.070374   21.357728    9.274265
     52          1           0       -4.318236   19.908727    9.897650
     53          1           0       -4.838277   20.714209    7.034204
     54          1           0       -5.022674   19.009916    7.346305
     55          1           0       -2.647050   19.814710    6.655482
     56          1           0       -2.532316   20.519522    8.279627
     57          1           0       -3.242078   18.102855    9.035257
     58          1           0       -1.642562   18.397253    8.542925
     59          1           0       -2.719840   17.674163    7.524023
 ---------------------------------------------------------------------

 SCF Done:  E(RB3LYP) =  -1300.59553630     A.U. after    1 cycles

 Alpha  occ. eigenvalues --  -19.29819 -19.26507 -19.23958 -19.20826 -14.60137
 Alpha  occ. eigenvalues --  -14.48387 -14.46081 -14.38088 -10.44798 -10.40688
 Alpha  occ. eigenvalues --  -10.40214 -10.37517 -10.36836 -10.34113 -10.33127
 Alpha  occ. eigenvalues --  -10.32151 -10.31987 -10.31845 -10.30676 -10.29173
 Alpha  occ. eigenvalues --  -10.28630 -10.27066 -10.26106 -10.25255 -10.25040
 Alpha  occ. eigenvalues --  -10.24942 -10.24825 -10.24811  -1.22152  -1.15943
 Alpha  occ. eigenvalues --   -1.14874  -1.13233  -1.12899  -1.05202  -1.03580
 Alpha  occ. eigenvalues --   -0.96183  -0.94824  -0.91491  -0.90502  -0.89140
 Alpha  occ. eigenvalues --   -0.86094  -0.84475  -0.83504  -0.80405  -0.79124
 Alpha  occ. eigenvalues --   -0.78947  -0.75484  -0.74627  -0.73791  -0.72589
 Alpha  occ. eigenvalues --   -0.71664  -0.71149  -0.70370  -0.68924  -0.66732
 Alpha  occ. eigenvalues --   -0.66608  -0.65559  -0.64634  -0.64227  -0.62425
 Alpha  occ. eigenvalues --   -0.60259  -0.60036  -0.59446  -0.59229  -0.57470
 Alpha  occ. eigenvalues --   -0.57170  -0.56991  -0.55683  -0.55451  -0.54774
 Alpha  occ. eigenvalues --   -0.54394  -0.53458  -0.53106  -0.52936  -0.51854
 Alpha  occ. eigenvalues --   -0.51711  -0.51417  -0.50812  -0.50258  -0.50061
 Alpha  occ. eigenvalues --   -0.49301  -0.48560  -0.47973  -0.47840  -0.47176
 Alpha  occ. eigenvalues --   -0.46820  -0.46516  -0.46303  -0.45344  -0.44821
 Alpha  occ. eigenvalues --   -0.44494  -0.44311  -0.43550  -0.43416  -0.41551
 Alpha  occ. eigenvalues --   -0.41042  -0.40284  -0.40017  -0.37981  -0.37194
 Alpha  occ. eigenvalues --   -0.34669  -0.33858  -0.31188  -0.30892  -0.30004
 Alpha virt. eigenvalues --   -0.13120  -0.11337  -0.09816  -0.07695  -0.06402
 Alpha virt. eigenvalues --   -0.06281  -0.06135  -0.04619  -0.03262  -0.02558
 Alpha virt. eigenvalues --   -0.02038  -0.01251  -0.00137   0.00869   0.01419

 Mulliken charges:
               1
     1  N   -0.728289
     2  C   -0.045378
     3  C    0.568800
     4  O   -0.510256
     5  C   -0.350208
     6  C    0.152660
     7  C   -0.178222
     8  C   -0.184288
     9  C   -0.131776
    10  C   -0.127866
    11  C   -0.127785
    12  H    0.143184
    13  H    0.147681
    14  H    0.135842
    15  H    0.145702
    16  H    0.115428
    17  H    0.141392
    18  H    0.140910
    19  H    0.143705
    20  H    0.326337
    21  H    0.316844
    22  N   -0.499265
    23  C   -0.003971
    24  C    0.646600
    25  O   -0.574350
    26  C   -0.306287
    27  C   -0.301176
    28  C   -0.133117
    29  H    0.200019
    30  H    0.154207
    31  H    0.189556
    32  H    0.173934
    33  H    0.173302
    34  H    0.179527
    35  H    0.162733
    36  N   -0.600906
    37  C   -0.076613
    38  C    0.638595
    39  O   -0.530114
    40  C   -0.297935
    41  C   -0.287496
    42  C   -0.296796
    43  C   -0.195859
    44  N   -0.769723
    45  O   -0.549005
    46  H    0.472867
    47  H    0.362722
    48  H    0.193828
    49  H    0.172056
    50  H    0.175615
    51  H    0.174902
    52  H    0.169158
    53  H    0.200929
    54  H    0.157745
    55  H    0.215075
    56  H    0.220811
    57  H    0.466437
    58  H    0.415092
    59  H    0.412486
 Sum of Mulliken charges =   1.00000

 Dipole moment (field-independent basis, Debye):
    X=            -27.1210    Y=             92.3736    Z=             44.1462  Tot=            105.9118
 Quadrupole moment (field-independent basis, Debye-Ang):
   XX=             81.2356   YY=           1609.0124   ZZ=            281.9703
   XY=           -514.1411   XZ=           -292.8553   YZ=            847.4146

 Normal termination of Gaussian 16 at Wed May 25 08:34:56 2022.
