 Gaussian 16, Revision C.01,
 Gaussian 16:  ES64L-G16RevC.01  3-Jul-2019

 ----------------------------------------------------------------------
 # B3LYP/6-31G* empiricaldispersion=gd3 guess=read geom=check nosymm in
 tegral(ultrafinegrid)
 ----------------------------------------------------------------------

 ------------------------------------------------------
 Candidate Structure: Conf:669 Charge calc in gas phase
 ------------------------------------------------------
 Structure from the checkpoint file:  "conf-669.chk"
 Charge =  1 Multiplicity = 1

                          Input orientation:
 ---------------------------------------------------------------------
 Center     Atomic      Atomic             Coordinates (Angstroms)
 Number     Number       Type             X           Y           Z
 ---------------------------------------------------------------------
      1          7           0       -6.976857   17.720843   13.739525
      2          6           0       -7.645291   19.027962   13.492326
      3          6           0       -8.918097   18.690031   12.679752
      4          8           0       -9.344210   17.526453   12.717303
      5          6           0       -6.645667   20.019003   12.837188
      6          6           0       -5.276653   19.975496   13.484889
      7          6           0       -4.235880   19.245449   12.892600
      8          6           0       -5.042261   20.629631   14.702562
      9          6           0       -2.983034   19.178828   13.506063
     10          6           0       -3.791112   20.561059   15.316323
     11          6           0       -2.758354   19.834893   14.717958
     12          1           0       -7.975571   19.460369   14.449777
     13          1           0       -6.558774   19.792982   11.773164
     14          1           0       -7.049369   21.028290   12.937888
     15          1           0       -4.416692   18.735994   11.949616
     16          1           0       -5.840018   21.206996   15.166427
     17          1           0       -2.181073   18.618587   13.033517
     18          1           0       -3.620012   21.079922   16.255232
     19          1           0       -1.782434   19.785702   15.192167
     20          1           0       -7.577070   17.148791   14.331536
     21          1           0       -6.101029   17.889272   14.235012
     22          7           0       -9.536340   19.613894   11.896878
     23          6           0      -10.670315   19.165854   11.047037
     24          6           0      -10.263382   17.924906   10.245583
     25          8           0      -10.925788   16.886570   10.297577
     26          6           0      -11.020904   20.425293   10.238595
     27          6           0      -10.698117   21.558296   11.223627
     28          6           0       -9.392018   21.087817   11.877983
     29          1           0      -11.505775   18.844351   11.675756
     30          1           0      -10.385268   20.500039    9.347673
     31          1           0      -12.061271   20.414009    9.906670
     32          1           0      -10.587065   22.531759   10.739750
     33          1           0      -11.489762   21.640116   11.976491
     34          1           0       -9.260533   21.476783   12.890792
     35          1           0       -8.525431   21.380948   11.275967
     36          7           0       -9.081042   18.004409    9.548836
     37          6           0       -8.263059   16.786698    9.574464
     38          6           0       -7.098529   17.076051   10.525423
     39          8           0       -6.361732   18.029417   10.362525
     40          6           0       -7.879627   16.076105    8.279277
     41          6           0       -7.746661   14.570405    8.608031
     42          6           0       -9.061095   13.921635    9.146282
     43          6           0       -9.173873   13.570170   10.644369
     44          7           0       -9.455307   14.727240   11.596322
     45          8           0       -7.058928   16.264785   11.590601
     46          1           0       -6.820813   16.849183   12.463491
     47          1           0       -8.556099   18.869531    9.622936
     48          1           0       -8.923565   16.096457   10.055712
     49          1           0       -6.953155   16.471413    7.850179
     50          1           0       -8.679613   16.229043    7.546391
     51          1           0       -7.443204   14.039684    7.700752
     52          1           0       -6.932444   14.420110    9.330447
     53          1           0       -9.189401   12.953521    8.649155
     54          1           0       -9.935171   14.517933    8.853853
     55          1           0      -10.004531   12.874533   10.784511
     56          1           0       -8.260623   13.095289   11.012722
     57          1           0      -10.182168   15.381575   11.236459
     58          1           0       -8.602511   15.310403   11.767405
     59          1           0       -9.774646   14.380148   12.505205
 ---------------------------------------------------------------------

 SCF Done:  E(RB3LYP) =  -1300.61666156     A.U. after    1 cycles

 Alpha  occ. eigenvalues --  -19.28521 -19.25054 -19.24394 -19.24068 -14.56547
 Alpha  occ. eigenvalues --  -14.49014 -14.47831 -14.46815 -10.42879 -10.41346
 Alpha  occ. eigenvalues --  -10.41214 -10.37768 -10.35438 -10.34923 -10.34416
 Alpha  occ. eigenvalues --  -10.34179 -10.31816 -10.30716 -10.30241 -10.30210
 Alpha  occ. eigenvalues --  -10.29735 -10.29391 -10.28431 -10.27424 -10.27098
 Alpha  occ. eigenvalues --  -10.27005 -10.26948 -10.26869  -1.20115  -1.16699
 Alpha  occ. eigenvalues --   -1.15450  -1.11949  -1.11020  -1.06505  -1.04225
 Alpha  occ. eigenvalues --   -1.02623  -0.93871  -0.92929  -0.91518  -0.89109
 Alpha  occ. eigenvalues --   -0.87687  -0.86497  -0.82544  -0.82297  -0.82078
 Alpha  occ. eigenvalues --   -0.77508  -0.76931  -0.74475  -0.72589  -0.71966
 Alpha  occ. eigenvalues --   -0.70906  -0.70281  -0.69377  -0.68804  -0.68752
 Alpha  occ. eigenvalues --   -0.67643  -0.66490  -0.64149  -0.63548  -0.62386
 Alpha  occ. eigenvalues --   -0.61395  -0.60964  -0.60183  -0.59407  -0.58735
 Alpha  occ. eigenvalues --   -0.58515  -0.57953  -0.57411  -0.55589  -0.55453
 Alpha  occ. eigenvalues --   -0.54948  -0.54318  -0.54124  -0.53517  -0.53222
 Alpha  occ. eigenvalues --   -0.52918  -0.52701  -0.52236  -0.51410  -0.50088
 Alpha  occ. eigenvalues --   -0.49940  -0.49899  -0.49179  -0.48802  -0.48523
 Alpha  occ. eigenvalues --   -0.48338  -0.46918  -0.46599  -0.46279  -0.45731
 Alpha  occ. eigenvalues --   -0.45437  -0.44902  -0.44639  -0.43992  -0.42868
 Alpha  occ. eigenvalues --   -0.42394  -0.41922  -0.40174  -0.39281  -0.38226
 Alpha  occ. eigenvalues --   -0.37634  -0.36687  -0.36427  -0.33225  -0.32804
 Alpha virt. eigenvalues --   -0.13144  -0.10910  -0.10062  -0.08627  -0.08407
 Alpha virt. eigenvalues --   -0.07659  -0.04221  -0.02759  -0.01759  -0.01383
 Alpha virt. eigenvalues --   -0.00331  -0.00064   0.00809   0.01231   0.01459

 Mulliken charges:
               1
     1  N   -0.786509
     2  C   -0.070882
     3  C    0.626342
     4  O   -0.578163
     5  C   -0.376771
     6  C    0.110091
     7  C   -0.195541
     8  C   -0.181161
     9  C   -0.129951
    10  C   -0.128557
    11  C   -0.126408
    12  H    0.179997
    13  H    0.195967
    14  H    0.163777
    15  H    0.164662
    16  H    0.127738
    17  H    0.149791
    18  H    0.151089
    19  H    0.152726
    20  H    0.344914
    21  H    0.362769
    22  N   -0.480312
    23  C   -0.019500
    24  C    0.623042
    25  O   -0.547431
    26  C   -0.317891
    27  C   -0.304795
    28  C   -0.138797
    29  H    0.194822
    30  H    0.166609
    31  H    0.193045
    32  H    0.183693
    33  H    0.175918
    34  H    0.180322
    35  H    0.179648
    36  N   -0.581754
    37  C   -0.014692
    38  C    0.609938
    39  O   -0.463560
    40  C   -0.285494
    41  C   -0.293479
    42  C   -0.312737
    43  C   -0.182727
    44  N   -0.811368
    45  O   -0.650554
    46  H    0.474513
    47  H    0.345079
    48  H    0.131722
    49  H    0.179463
    50  H    0.175873
    51  H    0.179702
    52  H    0.159946
    53  H    0.190498
    54  H    0.191637
    55  H    0.205580
    56  H    0.207415
    57  H    0.450353
    58  H    0.450324
    59  H    0.400027
 Sum of Mulliken charges =   1.00000

 Dipole moment (field-independent basis, Debye):
    X=            -41.7666    Y=             81.9470    Z=             57.4261  Tot=            108.4320
 Quadrupole moment (field-independent basis, Debye-Ang):
   XX=            216.5941   YY=           1293.5268   ZZ=            549.4775
   XY=           -713.9247   XZ=           -487.1256   YZ=            992.7546

 Normal termination of Gaussian 16 at Wed May 25 08:34:59 2022.
