 Gaussian 16, Revision C.01,
 Gaussian 16:  ES64L-G16RevC.01  3-Jul-2019

 ----------------------------------------------------------------------
 # B3LYP/6-31G* empiricaldispersion=gd3 guess=read geom=check nosymm in
 tegral(ultrafinegrid)
 ----------------------------------------------------------------------

 ------------------------------------------------------
 Candidate Structure: Conf:883 Charge calc in gas phase
 ------------------------------------------------------
 Structure from the checkpoint file:  "conf-883.chk"
 Charge =  1 Multiplicity = 1

                          Input orientation:
 ---------------------------------------------------------------------
 Center     Atomic      Atomic             Coordinates (Angstroms)
 Number     Number       Type             X           Y           Z
 ---------------------------------------------------------------------
      1          7           0      -10.668575   15.713987    9.878551
      2          6           0       -9.990782   16.998498    9.966228
      3          6           0       -8.477179   16.882940    9.721299
      4          8           0       -7.869565   15.838884    9.943463
      5          6           0      -10.182364   17.600129   11.393224
      6          6           0      -11.565884   18.158822   11.627373
      7          6           0      -12.667809   17.311293   11.808322
      8          6           0      -11.772530   19.544241   11.631906
      9          6           0      -13.944651   17.843209   11.988208
     10          6           0      -13.049588   20.078552   11.812114
     11          6           0      -14.140211   19.226661   11.991333
     12          1           0      -10.445383   17.683600    9.243504
     13          1           0       -9.948749   16.799589   12.107487
     14          1           0       -9.445122   18.399708   11.555813
     15          1           0      -12.517548   16.237449   11.783155
     16          1           0      -10.924241   20.214919   11.499039
     17          1           0      -14.790323   17.175098   12.126599
     18          1           0      -13.191063   21.156011   11.815069
     19          1           0      -15.135851   19.637325   12.133913
     20          1           0      -10.045833   15.002190   10.262641
     21          1           0      -10.816122   15.460634    8.903665
     22          7           0       -7.798193   18.031715    9.383370
     23          6           0       -6.362633   17.958102    9.090354
     24          6           0       -5.487902   17.984988   10.343063
     25          8           0       -4.249291   17.947232   10.242132
     26          6           0       -6.105122   19.186261    8.192777
     27          6           0       -7.172538   20.186821    8.662493
     28          6           0       -8.397746   19.295816    8.905548
     29          1           0       -6.120535   17.013792    8.593799
     30          1           0       -5.078229   19.547797    8.275762
     31          1           0       -6.283328   18.904160    7.149943
     32          1           0       -6.862344   20.659986    9.602542
     33          1           0       -7.371978   20.979551    7.937403
     34          1           0       -8.958079   19.128234    7.976790
     35          1           0       -9.087704   19.710673    9.645904
     36          7           0       -6.109219   18.044392   11.540829
     37          6           0       -5.415970   18.227080   12.817527
     38          6           0       -4.632669   16.964775   13.263372
     39          8           0       -4.774195   16.458900   14.379005
     40          6           0       -6.436211   18.748721   13.843568
     41          6           0       -5.975088   18.793095   15.307771
     42          6           0       -4.566419   19.370774   15.564635
     43          6           0       -3.905467   18.703953   16.768593
     44          7           0       -3.393419   17.322322   16.366430
     45          8           0       -3.732942   16.503876   12.428254
     46          1           0       -3.737082   17.022715   11.557415
     47          1           0       -7.120257   18.002649   11.542096
     48          1           0       -4.637781   18.985072   12.641407
     49          1           0       -7.336844   18.123213   13.804738
     50          1           0       -6.740370   19.745864   13.502846
     51          1           0       -6.704832   19.380385   15.876073
     52          1           0       -6.034370   17.776746   15.702786
     53          1           0       -4.613770   20.447525   15.758329
     54          1           0       -3.902557   19.263523   14.696984
     55          1           0       -3.048768   19.261164   17.153664
     56          1           0       -4.615304   18.553238   17.585474
     57          1           0       -3.291587   16.692937   17.169094
     58          1           0       -2.474422   17.390143   15.916216
     59          1           0       -4.021787   16.868789   15.649930
 ---------------------------------------------------------------------

 SCF Done:  E(RB3LYP) =  -1300.59580455     A.U. after    1 cycles

 Alpha  occ. eigenvalues --  -19.31411 -19.27869 -19.24569 -19.20798 -14.59672
 Alpha  occ. eigenvalues --  -14.49164 -14.46134 -14.38803 -10.46261 -10.41084
 Alpha  occ. eigenvalues --  -10.40270 -10.37873 -10.37221 -10.34346 -10.33468
 Alpha  occ. eigenvalues --  -10.32572 -10.32219 -10.32106 -10.30673 -10.28965
 Alpha  occ. eigenvalues --  -10.28944 -10.27633 -10.26000 -10.25298 -10.24941
 Alpha  occ. eigenvalues --  -10.24670 -10.24596 -10.24383  -1.23509  -1.16477
 Alpha  occ. eigenvalues --   -1.15383  -1.13912  -1.12885  -1.05847  -1.03866
 Alpha  occ. eigenvalues --   -0.96646  -0.95363  -0.91426  -0.91034  -0.89296
 Alpha  occ. eigenvalues --   -0.86298  -0.84761  -0.84015  -0.80199  -0.79397
 Alpha  occ. eigenvalues --   -0.78946  -0.76287  -0.74874  -0.74354  -0.72824
 Alpha  occ. eigenvalues --   -0.72005  -0.71746  -0.70729  -0.68908  -0.66941
 Alpha  occ. eigenvalues --   -0.66464  -0.65805  -0.64865  -0.64385  -0.63542
 Alpha  occ. eigenvalues --   -0.61671  -0.60656  -0.59848  -0.59430  -0.57704
 Alpha  occ. eigenvalues --   -0.57049  -0.56911  -0.56366  -0.56067  -0.55616
 Alpha  occ. eigenvalues --   -0.54618  -0.53830  -0.53464  -0.52778  -0.52378
 Alpha  occ. eigenvalues --   -0.52084  -0.51603  -0.50967  -0.50582  -0.49994
 Alpha  occ. eigenvalues --   -0.49700  -0.48669  -0.48585  -0.48036  -0.47706
 Alpha  occ. eigenvalues --   -0.47471  -0.47086  -0.46060  -0.45420  -0.44960
 Alpha  occ. eigenvalues --   -0.44924  -0.44497  -0.43919  -0.43678  -0.41984
 Alpha  occ. eigenvalues --   -0.41271  -0.40295  -0.39888  -0.39028  -0.38085
 Alpha  occ. eigenvalues --   -0.34790  -0.34077  -0.31789  -0.30642  -0.30116
 Alpha virt. eigenvalues --   -0.14321  -0.11401  -0.10431  -0.07942  -0.06500
 Alpha virt. eigenvalues --   -0.06106  -0.05903  -0.04908  -0.04149  -0.02923
 Alpha virt. eigenvalues --   -0.02232  -0.01406  -0.00055   0.00774   0.01144

 Mulliken charges:
               1
     1  N   -0.694944
     2  C   -0.066070
     3  C    0.545049
     4  O   -0.516364
     5  C   -0.361026
     6  C    0.164792
     7  C   -0.156887
     8  C   -0.192289
     9  C   -0.132883
    10  C   -0.128319
    11  C   -0.127331
    12  H    0.159860
    13  H    0.158104
    14  H    0.115808
    15  H    0.153411
    16  H    0.104639
    17  H    0.142652
    18  H    0.135503
    19  H    0.142027
    20  H    0.319775
    21  H    0.313714
    22  N   -0.488566
    23  C   -0.025985
    24  C    0.635415
    25  O   -0.567695
    26  C   -0.308269
    27  C   -0.303557
    28  C   -0.135449
    29  H    0.215511
    30  H    0.189941
    31  H    0.176456
    32  H    0.148911
    33  H    0.179977
    34  H    0.176604
    35  H    0.173847
    36  N   -0.615057
    37  C   -0.071163
    38  C    0.640663
    39  O   -0.530580
    40  C   -0.308682
    41  C   -0.288770
    42  C   -0.298714
    43  C   -0.192699
    44  N   -0.770822
    45  O   -0.546321
    46  H    0.469422
    47  H    0.383067
    48  H    0.195826
    49  H    0.180380
    50  H    0.175248
    51  H    0.176507
    52  H    0.172979
    53  H    0.201609
    54  H    0.153625
    55  H    0.214539
    56  H    0.221128
    57  H    0.412955
    58  H    0.409073
    59  H    0.469424
 Sum of Mulliken charges =   1.00000

 Dipole moment (field-independent basis, Debye):
    X=            -24.5061    Y=             90.5681    Z=             69.0844  Tot=            116.5152
 Quadrupole moment (field-independent basis, Debye-Ang):
   XX=             -3.7110   YY=           1545.3468   ZZ=            894.0613
   XY=           -471.2477   XZ=           -312.1097   YZ=           1286.3179

 Normal termination of Gaussian 16 at Wed May 25 08:34:59 2022.
