 Gaussian 16, Revision C.01,
 Gaussian 16:  ES64L-G16RevC.01  3-Jul-2019

 ----------------------------------------------------------------------
 # B3LYP/6-31G* empiricaldispersion=gd3 guess=read geom=check nosymm in
 tegral(ultrafinegrid)
 ----------------------------------------------------------------------

 ------------------------------------------------------
 Candidate Structure: Conf:472 Charge calc in gas phase
 ------------------------------------------------------
 Structure from the checkpoint file:  "conf-472.chk"
 Charge =  1 Multiplicity = 1

                          Input orientation:
 ---------------------------------------------------------------------
 Center     Atomic      Atomic             Coordinates (Angstroms)
 Number     Number       Type             X           Y           Z
 ---------------------------------------------------------------------
      1          7           0       -9.535319   18.115406   10.364766
      2          6           0       -9.165511   19.380453   11.057133
      3          6           0       -7.618295   19.402197   11.072008
      4          8           0       -7.015501   18.686952   10.258404
      5          6           0       -9.874620   19.457069   12.436220
      6          6           0      -11.324822   19.023743   12.367698
      7          6           0      -11.695930   17.728766   12.757894
      8          6           0      -12.307588   19.894757   11.876714
      9          6           0      -13.027464   17.318169   12.664123
     10          6           0      -13.637475   19.483534   11.781148
     11          6           0      -13.999747   18.193121   12.175535
     12          1           0       -9.497227   20.241015   10.455312
     13          1           0       -9.336510   18.835290   13.153558
     14          1           0       -9.833154   20.490787   12.784831
     15          1           0      -10.934717   17.051562   13.136578
     16          1           0      -12.032472   20.905249   11.579790
     17          1           0      -13.305465   16.316037   12.978377
     18          1           0      -14.390784   20.171213   11.407423
     19          1           0      -15.035700   17.874090   12.106761
     20          1           0       -9.218718   18.162696    9.397561
     21          1           0      -10.551587   18.025208   10.367541
     22          7           0       -6.919122   20.136117   11.978252
     23          6           0       -5.440202   19.991024   12.005544
     24          6           0       -5.062250   18.507322   12.065576
     25          8           0       -4.303415   18.008130   11.232157
     26          6           0       -5.025546   20.857949   13.205184
     27          6           0       -6.071361   21.982242   13.185278
     28          6           0       -7.373282   21.239254   12.856085
     29          1           0       -5.009772   20.362686   11.071074
     30          1           0       -5.097809   20.284594   14.137627
     31          1           0       -3.996910   21.212127   13.109619
     32          1           0       -6.137441   22.526542   14.130515
     33          1           0       -5.836236   22.701673   12.393239
     34          1           0       -8.102707   21.868894   12.340503
     35          1           0       -7.836316   20.840698   13.764941
     36          7           0       -5.684097   17.754041   13.032825
     37          6           0       -6.082228   16.406992   12.609003
     38          6           0       -7.601679   16.449674   12.426081
     39          8           0       -8.343974   16.804581   13.321253
     40          6           0       -5.551768   15.172022   13.332061
     41          6           0       -5.480043   14.030421   12.290704
     42          6           0       -4.532648   14.330579   11.086246
     43          6           0       -5.141951   14.666315    9.709089
     44          7           0       -5.680770   16.081056    9.529385
     45          8           0       -8.000896   16.182958   11.175550
     46          1           0       -8.790301   16.865899   10.909952
     47          1           0       -6.355196   18.226977   13.629023
     48          1           0       -5.631193   16.346379   11.640982
     49          1           0       -6.178552   14.891680   14.184873
     50          1           0       -4.548556   15.393723   13.712746
     51          1           0       -5.129897   13.122434   12.790569
     52          1           0       -6.489967   13.800851   11.923607
     53          1           0       -3.940749   13.429895   10.888075
     54          1           0       -3.802990   15.106781   11.351331
     55          1           0       -4.371820   14.552877    8.942561
     56          1           0       -5.971615   13.997149    9.466008
     57          1           0       -5.050301   16.809174    9.927274
     58          1           0       -6.605673   16.211287   10.002951
     59          1           0       -5.813310   16.295879    8.537016
 ---------------------------------------------------------------------

 SCF Done:  E(RB3LYP) =  -1300.61666736     A.U. after    2 cycles

 Alpha  occ. eigenvalues --  -19.28527 -19.25056 -19.24395 -19.24068 -14.56543
 Alpha  occ. eigenvalues --  -14.49014 -14.47832 -14.46813 -10.42881 -10.41347
 Alpha  occ. eigenvalues --  -10.41214 -10.37766 -10.35437 -10.34923 -10.34417
 Alpha  occ. eigenvalues --  -10.34179 -10.31817 -10.30717 -10.30241 -10.30211
 Alpha  occ. eigenvalues --  -10.29737 -10.29388 -10.28430 -10.27424 -10.27098
 Alpha  occ. eigenvalues --  -10.27005 -10.26949 -10.26869  -1.20118  -1.16699
 Alpha  occ. eigenvalues --   -1.15451  -1.11951  -1.11019  -1.06503  -1.04225
 Alpha  occ. eigenvalues --   -1.02620  -0.93871  -0.92931  -0.91518  -0.89111
 Alpha  occ. eigenvalues --   -0.87686  -0.86497  -0.82545  -0.82297  -0.82079
 Alpha  occ. eigenvalues --   -0.77507  -0.76931  -0.74474  -0.72590  -0.71966
 Alpha  occ. eigenvalues --   -0.70906  -0.70281  -0.69376  -0.68804  -0.68753
 Alpha  occ. eigenvalues --   -0.67642  -0.66490  -0.64148  -0.63547  -0.62384
 Alpha  occ. eigenvalues --   -0.61394  -0.60965  -0.60185  -0.59408  -0.58735
 Alpha  occ. eigenvalues --   -0.58517  -0.57953  -0.57411  -0.55590  -0.55452
 Alpha  occ. eigenvalues --   -0.54948  -0.54318  -0.54124  -0.53517  -0.53223
 Alpha  occ. eigenvalues --   -0.52918  -0.52701  -0.52237  -0.51410  -0.50089
 Alpha  occ. eigenvalues --   -0.49939  -0.49900  -0.49180  -0.48802  -0.48522
 Alpha  occ. eigenvalues --   -0.48338  -0.46918  -0.46599  -0.46279  -0.45732
 Alpha  occ. eigenvalues --   -0.45439  -0.44903  -0.44640  -0.43993  -0.42870
 Alpha  occ. eigenvalues --   -0.42394  -0.41923  -0.40174  -0.39283  -0.38227
 Alpha  occ. eigenvalues --   -0.37634  -0.36688  -0.36427  -0.33226  -0.32804
 Alpha virt. eigenvalues --   -0.13145  -0.10909  -0.10064  -0.08626  -0.08408
 Alpha virt. eigenvalues --   -0.07657  -0.04220  -0.02758  -0.01758  -0.01383
 Alpha virt. eigenvalues --   -0.00330  -0.00062   0.00810   0.01231   0.01460

 Mulliken charges:
               1
     1  N   -0.786513
     2  C   -0.070820
     3  C    0.626308
     4  O   -0.578156
     5  C   -0.376815
     6  C    0.110162
     7  C   -0.195585
     8  C   -0.181145
     9  C   -0.129943
    10  C   -0.128554
    11  C   -0.126414
    12  H    0.179996
    13  H    0.196064
    14  H    0.163726
    15  H    0.164590
    16  H    0.127755
    17  H    0.149783
    18  H    0.151090
    19  H    0.152726
    20  H    0.344898
    21  H    0.362767
    22  N   -0.480306
    23  C   -0.019542
    24  C    0.623094
    25  O   -0.547417
    26  C   -0.317872
    27  C   -0.304771
    28  C   -0.138798
    29  H    0.194818
    30  H    0.166564
    31  H    0.193047
    32  H    0.183690
    33  H    0.175911
    34  H    0.180326
    35  H    0.179654
    36  N   -0.581739
    37  C   -0.014748
    38  C    0.610103
    39  O   -0.463596
    40  C   -0.285477
    41  C   -0.293516
    42  C   -0.312707
    43  C   -0.182735
    44  N   -0.811380
    45  O   -0.650583
    46  H    0.474473
    47  H    0.345068
    48  H    0.131696
    49  H    0.179465
    50  H    0.175886
    51  H    0.179698
    52  H    0.159955
    53  H    0.190514
    54  H    0.191592
    55  H    0.205570
    56  H    0.207407
    57  H    0.450349
    58  H    0.450365
    59  H    0.400022
 Sum of Mulliken charges =   1.00000

 Dipole moment (field-independent basis, Debye):
    X=            -33.8098    Y=             85.1320    Z=             51.8603  Tot=            105.2618
 Quadrupole moment (field-independent basis, Debye-Ang):
   XX=            109.4714   YY=           1394.9881   ZZ=            414.0933
   XY=           -615.6106   XZ=           -361.8592   YZ=            935.6912

 Normal termination of Gaussian 16 at Wed May 25 08:35:10 2022.
