 Gaussian 16, Revision C.01,
 Gaussian 16:  ES64L-G16RevC.01  3-Jul-2019

 ----------------------------------------------------------------------
 # B3LYP/6-31G* empiricaldispersion=gd3 guess=read geom=check nosymm in
 tegral(ultrafinegrid)
 ----------------------------------------------------------------------

 ------------------------------------------------------
 Candidate Structure: Conf:123 Charge calc in gas phase
 ------------------------------------------------------
 Structure from the checkpoint file:  "conf-123.chk"
 Charge =  1 Multiplicity = 1

                          Input orientation:
 ---------------------------------------------------------------------
 Center     Atomic      Atomic             Coordinates (Angstroms)
 Number     Number       Type             X           Y           Z
 ---------------------------------------------------------------------
      1          7           0       -7.862048   19.738971   13.497600
      2          6           0       -7.124233   20.197265   12.264234
      3          6           0       -8.069564   19.753349   11.116044
      4          8           0       -9.259444   19.582423   11.399636
      5          6           0       -5.692893   19.615455   12.292419
      6          6           0       -5.048335   19.761724   13.656876
      7          6           0       -5.068938   18.693404   14.566109
      8          6           0       -4.476440   20.980273   14.048398
      9          6           0       -4.519189   18.842490   15.841292
     10          6           0       -3.927546   21.128270   15.322882
     11          6           0       -3.948240   20.058745   16.221575
     12          1           0       -7.088321   21.292096   12.302600
     13          1           0       -5.741496   18.561424   12.008514
     14          1           0       -5.095880   20.143848   11.546713
     15          1           0       -5.518974   17.748635   14.269739
     16          1           0       -4.445791   21.812396   13.347485
     17          1           0       -4.532543   18.006321   16.534482
     18          1           0       -3.477797   22.073980   15.611035
     19          1           0       -3.516770   20.172256   17.211686
     20          1           0       -8.851969   19.994083   13.398370
     21          1           0       -7.442080   20.112699   14.351410
     22          7           0       -7.591780   19.486253    9.880528
     23          6           0       -8.523293   18.864797    8.904663
     24          6           0       -9.131741   17.562530    9.449325
     25          8           0      -10.295652   17.266099    9.225418
     26          6           0       -7.645461   18.689948    7.652342
     27          6           0       -6.662380   19.865827    7.747940
     28          6           0       -6.325441   19.913456    9.244929
     29          1           0       -9.369550   19.531968    8.720151
     30          1           0       -7.106929   17.736194    7.702364
     31          1           0       -8.244303   18.692333    6.739414
     32          1           0       -5.769333   19.734937    7.131595
     33          1           0       -7.153482   20.797161    7.444979
     34          1           0       -6.035764   20.911330    9.585058
     35          1           0       -5.517959   19.212528    9.485236
     36          7           0       -8.268270   16.764186   10.166918
     37          6           0       -8.836063   15.893008   11.187773
     38          6           0       -8.722840   16.586152   12.562925
     39          8           0       -7.664101   17.232326   12.786977
     40          6           0       -8.208198   14.493005   11.228944
     41          6           0       -8.970325   13.524266   12.151399
     42          6           0      -10.418463   13.198700   11.688832
     43          6           0      -11.548397   13.709103   12.588171
     44          7           0      -11.715760   15.204208   12.540800
     45          8           0       -9.676586   16.460210   13.390426
     46          1           0       -7.827408   18.662659   13.494410
     47          1           0       -7.400127   17.198940   10.457236
     48          1           0       -9.884661   15.801477   10.909114
     49          1           0       -7.166115   14.574951   11.561179
     50          1           0       -8.191083   14.100529   10.205106
     51          1           0       -8.400264   12.591411   12.204003
     52          1           0       -8.983977   13.924318   13.172800
     53          1           0      -10.550613   12.111958   11.648055
     54          1           0      -10.588092   13.547976   10.660604
     55          1           0      -12.502309   13.258477   12.298065
     56          1           0      -11.355576   13.457473   13.635088
     57          1           0      -11.923316   15.523442   11.589316
     58          1           0      -10.774248   15.774075   12.914848
     59          1           0      -12.499333   15.498470   13.129625
 ---------------------------------------------------------------------

 SCF Done:  E(RB3LYP) =  -1300.63263042     A.U. after    2 cycles

 Alpha  occ. eigenvalues --  -19.24036 -19.23116 -19.22330 -19.21114 -14.54370
 Alpha  occ. eigenvalues --  -14.52997 -14.48663 -14.44846 -10.41464 -10.39886
 Alpha  occ. eigenvalues --  -10.38246 -10.38057 -10.35594 -10.34081 -10.33355
 Alpha  occ. eigenvalues --  -10.32374 -10.31297 -10.30351 -10.29947 -10.29645
 Alpha  occ. eigenvalues --  -10.29482 -10.28779 -10.28774 -10.28530 -10.28450
 Alpha  occ. eigenvalues --  -10.28352 -10.28284 -10.28112  -1.16820  -1.15927
 Alpha  occ. eigenvalues --   -1.12900  -1.09747  -1.08522  -1.06620  -1.06084
 Alpha  occ. eigenvalues --   -1.01597  -0.95479  -0.91625  -0.91045  -0.89480
 Alpha  occ. eigenvalues --   -0.87261  -0.85386  -0.84048  -0.83826  -0.80038
 Alpha  occ. eigenvalues --   -0.77818  -0.75459  -0.74403  -0.71250  -0.70543
 Alpha  occ. eigenvalues --   -0.69967  -0.69358  -0.69171  -0.68534  -0.67800
 Alpha  occ. eigenvalues --   -0.67378  -0.66923  -0.66525  -0.64218  -0.61176
 Alpha  occ. eigenvalues --   -0.60767  -0.60553  -0.60077  -0.59832  -0.57998
 Alpha  occ. eigenvalues --   -0.57305  -0.57202  -0.55974  -0.55485  -0.55106
 Alpha  occ. eigenvalues --   -0.54357  -0.54000  -0.53304  -0.52838  -0.52533
 Alpha  occ. eigenvalues --   -0.52197  -0.51740  -0.51321  -0.51056  -0.50765
 Alpha  occ. eigenvalues --   -0.49972  -0.49690  -0.48990  -0.48622  -0.48205
 Alpha  occ. eigenvalues --   -0.47398  -0.46684  -0.46102  -0.45368  -0.45239
 Alpha  occ. eigenvalues --   -0.44706  -0.44534  -0.43772  -0.43697  -0.43389
 Alpha  occ. eigenvalues --   -0.42867  -0.38971  -0.38172  -0.38111  -0.37256
 Alpha  occ. eigenvalues --   -0.36693  -0.34582  -0.34497  -0.34187  -0.33880
 Alpha virt. eigenvalues --   -0.11655  -0.09946  -0.09813  -0.08137  -0.07086
 Alpha virt. eigenvalues --   -0.06413  -0.04546  -0.03343  -0.01763  -0.01699
 Alpha virt. eigenvalues --   -0.00337  -0.00170   0.00686   0.00766   0.01549

 Mulliken charges:
               1
     1  N   -0.759802
     2  C   -0.104808
     3  C    0.635148
     4  O   -0.532402
     5  C   -0.375406
     6  C    0.110192
     7  C   -0.208588
     8  C   -0.185896
     9  C   -0.128372
    10  C   -0.127226
    11  C   -0.125460
    12  H    0.207430
    13  H    0.196833
    14  H    0.179245
    15  H    0.167973
    16  H    0.134772
    17  H    0.156434
    18  H    0.157924
    19  H    0.159131
    20  H    0.408245
    21  H    0.397755
    22  N   -0.489372
    23  C   -0.019426
    24  C    0.613412
    25  O   -0.516131
    26  C   -0.314926
    27  C   -0.301739
    28  C   -0.140304
    29  H    0.199486
    30  H    0.169451
    31  H    0.191877
    32  H    0.179746
    33  H    0.174614
    34  H    0.173214
    35  H    0.173577
    36  N   -0.594086
    37  C   -0.068052
    38  C    0.667537
    39  O   -0.613760
    40  C   -0.276753
    41  C   -0.295819
    42  C   -0.290310
    43  C   -0.181519
    44  N   -0.786632
    45  O   -0.606820
    46  H    0.448433
    47  H    0.336398
    48  H    0.143455
    49  H    0.159749
    50  H    0.167510
    51  H    0.171182
    52  H    0.162702
    53  H    0.185237
    54  H    0.167766
    55  H    0.193406
    56  H    0.201407
    57  H    0.394477
    58  H    0.469722
    59  H    0.388170
 Sum of Mulliken charges =   1.00000

 Dipole moment (field-independent basis, Debye):
    X=            -40.2323    Y=             85.5032    Z=             58.9438  Tot=            111.3724
 Quadrupole moment (field-independent basis, Debye-Ang):
   XX=            215.7188   YY=           1418.5835   ZZ=            590.4431
   XY=           -673.4829   XZ=           -500.8939   YZ=           1048.8044

 Normal termination of Gaussian 16 at Wed May 25 08:35:09 2022.
