 Gaussian 16, Revision C.01,
 Gaussian 16:  ES64L-G16RevC.01  3-Jul-2019

 ----------------------------------------------------------------------
 # B3LYP/6-31G* empiricaldispersion=gd3 guess=read geom=check nosymm in
 tegral(ultrafinegrid)
 ----------------------------------------------------------------------

 ------------------------------------------------------
 Candidate Structure: Conf:102 Charge calc in gas phase
 ------------------------------------------------------
 Structure from the checkpoint file:  "conf-102.chk"
 Charge =  1 Multiplicity = 1

                          Input orientation:
 ---------------------------------------------------------------------
 Center     Atomic      Atomic             Coordinates (Angstroms)
 Number     Number       Type             X           Y           Z
 ---------------------------------------------------------------------
      1          7           0       -6.630434   15.653421   14.536383
      2          6           0       -7.263243   16.940349   14.308651
      3          6           0       -8.468728   16.857157   13.361160
      4          8           0       -8.503478   15.963632   12.494785
      5          6           0       -6.248621   17.924741   13.645712
      6          6           0       -5.186661   18.412188   14.601957
      7          6           0       -4.105437   17.595626   14.959008
      8          6           0       -5.292828   19.684820   15.177070
      9          6           0       -3.151915   18.047390   15.871300
     10          6           0       -4.339757   20.138699   16.090027
     11          6           0       -3.265382   19.318875   16.438766
     12          1           0       -7.554200   17.358757   15.275712
     13          1           0       -5.803874   17.396110   12.791532
     14          1           0       -6.792511   18.790973   13.242245
     15          1           0       -4.028749   16.600553   14.533872
     16          1           0       -6.126370   20.330894   14.904590
     17          1           0       -2.317975   17.404909   16.139934
     18          1           0       -4.434131   21.130386   16.523874
     19          1           0       -2.519776   19.668988   17.146978
     20          1           0       -6.638043   15.124558   13.664619
     21          1           0       -7.163840   15.106364   15.208627
     22          7           0       -9.408399   17.832332   13.395020
     23          6           0      -10.559308   17.810115   12.467805
     24          6           0      -10.193503   17.708213   10.991734
     25          8           0      -10.977087   17.259116   10.167883
     26          6           0      -11.304666   19.120421   12.794235
     27          6           0      -11.011400   19.326289   14.286449
     28          6           0       -9.547262   18.888636   14.424083
     29          1           0      -11.183821   16.935024   12.674821
     30          1           0      -10.881008   19.943726   12.205956
     31          1           0      -12.367512   19.046068   12.556704
     32          1           0      -11.167530   20.356168   14.616865
     33          1           0      -11.652673   18.675276   14.890714
     34          1           0       -9.316551   18.499464   15.417734
     35          1           0       -8.854780   19.713371   14.213491
     36          7           0       -8.959261   18.179459   10.614991
     37          6           0       -8.502084   17.904831    9.271840
     38          6           0       -8.440138   16.397141    8.949581
     39          8           0       -8.456203   16.024480    7.770744
     40          6           0       -7.126246   18.565014    9.035486
     41          6           0       -6.605628   18.506878    7.590527
     42          6           0       -7.447327   19.315516    6.563377
     43          6           0       -7.935929   18.509800    5.358587
     44          7           0       -9.056489   17.567647    5.739964
     45          8           0       -8.277002   15.517167    9.896090
     46          1           0       -8.379444   15.847161   10.834477
     47          1           0       -8.278558   18.412094   11.325437
     48          1           0       -9.242185   18.317597    8.578305
     49          1           0       -6.390805   18.092798    9.699828
     50          1           0       -7.214097   19.612145    9.351774
     51          1           0       -5.583416   18.897354    7.593776
     52          1           0       -6.520650   17.460829    7.278097
     53          1           0       -6.848582   20.138168    6.158968
     54          1           0       -8.308862   19.798786    7.045342
     55          1           0       -8.315374   19.156934    4.563618
     56          1           0       -7.137263   17.887169    4.947218
     57          1           0       -9.300977   16.938066    4.969011
     58          1           0       -9.905427   18.086757    5.984927
     59          1           0       -8.797649   16.950455    6.599078
 ---------------------------------------------------------------------

 SCF Done:  E(RB3LYP) =  -1300.61252483     A.U. after    1 cycles

 Alpha  occ. eigenvalues --  -19.30015 -19.26776 -19.23695 -19.23010 -14.58085
 Alpha  occ. eigenvalues --  -14.48488 -14.48006 -14.40094 -10.44750 -10.40187
 Alpha  occ. eigenvalues --  -10.39820 -10.39140 -10.36865 -10.34278 -10.33618
 Alpha  occ. eigenvalues --  -10.33529 -10.32672 -10.32198 -10.31931 -10.30100
 Alpha  occ. eigenvalues --  -10.29669 -10.28740 -10.26612 -10.25778 -10.25366
 Alpha  occ. eigenvalues --  -10.25141 -10.25089 -10.25034  -1.22277  -1.15852
 Alpha  occ. eigenvalues --   -1.14838  -1.14127  -1.12506  -1.06061  -1.04615
 Alpha  occ. eigenvalues --   -0.98038  -0.94510  -0.92026  -0.91002  -0.90186
 Alpha  occ. eigenvalues --   -0.86810  -0.85554  -0.83536  -0.80718  -0.80074
 Alpha  occ. eigenvalues --   -0.78319  -0.76362  -0.75350  -0.73739  -0.72807
 Alpha  occ. eigenvalues --   -0.71655  -0.70898  -0.70579  -0.69279  -0.67668
 Alpha  occ. eigenvalues --   -0.66957  -0.66133  -0.65084  -0.64299  -0.62645
 Alpha  occ. eigenvalues --   -0.61817  -0.60380  -0.59686  -0.59392  -0.58310
 Alpha  occ. eigenvalues --   -0.57875  -0.57354  -0.56670  -0.56182  -0.55219
 Alpha  occ. eigenvalues --   -0.54667  -0.53848  -0.53354  -0.52915  -0.52503
 Alpha  occ. eigenvalues --   -0.52167  -0.52150  -0.51766  -0.50928  -0.50724
 Alpha  occ. eigenvalues --   -0.50379  -0.49024  -0.48509  -0.48292  -0.48085
 Alpha  occ. eigenvalues --   -0.47083  -0.46997  -0.46475  -0.46439  -0.46059
 Alpha  occ. eigenvalues --   -0.45217  -0.45093  -0.44435  -0.43150  -0.41949
 Alpha  occ. eigenvalues --   -0.41545  -0.40926  -0.40438  -0.38167  -0.37701
 Alpha  occ. eigenvalues --   -0.37038  -0.35594  -0.32969  -0.31180  -0.30811
 Alpha virt. eigenvalues --   -0.11917  -0.10483  -0.10392  -0.09060  -0.06874
 Alpha virt. eigenvalues --   -0.06432  -0.05475  -0.04621  -0.03505  -0.02082
 Alpha virt. eigenvalues --   -0.01563  -0.01179  -0.00488   0.00133   0.00669

 Mulliken charges:
               1
     1  N   -0.689063
     2  C   -0.063362
     3  C    0.570307
     4  O   -0.575268
     5  C   -0.369299
     6  C    0.169633
     7  C   -0.152117
     8  C   -0.189367
     9  C   -0.133259
    10  C   -0.128393
    11  C   -0.126227
    12  H    0.163664
    13  H    0.152049
    14  H    0.127537
    15  H    0.145515
    16  H    0.108482
    17  H    0.144379
    18  H    0.139502
    19  H    0.144890
    20  H    0.318226
    21  H    0.317615
    22  N   -0.471110
    23  C   -0.014515
    24  C    0.607297
    25  O   -0.514009
    26  C   -0.308612
    27  C   -0.305074
    28  C   -0.134943
    29  H    0.204491
    30  H    0.159228
    31  H    0.193374
    32  H    0.179516
    33  H    0.177397
    34  H    0.189037
    35  H    0.170165
    36  N   -0.642954
    37  C   -0.031257
    38  C    0.660514
    39  O   -0.530899
    40  C   -0.320118
    41  C   -0.298650
    42  C   -0.291732
    43  C   -0.197668
    44  N   -0.773147
    45  O   -0.554921
    46  H    0.487162
    47  H    0.352370
    48  H    0.156659
    49  H    0.174577
    50  H    0.177670
    51  H    0.184965
    52  H    0.175757
    53  H    0.200180
    54  H    0.161413
    55  H    0.209254
    56  H    0.219213
    57  H    0.409691
    58  H    0.399739
    59  H    0.464494
 Sum of Mulliken charges =   1.00000

 Dipole moment (field-independent basis, Debye):
    X=            -40.9909    Y=             90.9998    Z=             42.8885  Tot=            108.6308
 Quadrupole moment (field-independent basis, Debye-Ang):
   XX=            199.4314   YY=           1557.1702   ZZ=            321.3555
   XY=           -778.7330   XZ=           -367.8820   YZ=            819.3740

 Normal termination of Gaussian 16 at Wed May 25 08:35:01 2022.
