 Gaussian 16, Revision C.01,
 Gaussian 16:  ES64L-G16RevC.01  3-Jul-2019

 ----------------------------------------------------------------------
 # B3LYP/6-31G* empiricaldispersion=gd3 guess=read geom=check nosymm in
 tegral(ultrafinegrid)
 ----------------------------------------------------------------------

 ------------------------------------------------------
 Candidate Structure: Conf:123 Charge calc in gas phase
 ------------------------------------------------------
 Structure from the checkpoint file:  "conf-123.chk"
 Charge =  1 Multiplicity = 1

                          Input orientation:
 ---------------------------------------------------------------------
 Center     Atomic      Atomic             Coordinates (Angstroms)
 Number     Number       Type             X           Y           Z
 ---------------------------------------------------------------------
      1          7           0       -4.159264  -91.018562  130.797561
      2          6           0       -4.163355  -90.612034  129.389811
      3          6           0       -3.060308  -89.567035  129.156083
      4          8           0       -2.574412  -89.394549  128.025760
      5          6           0       -4.077644  -91.774611  128.374699
      6          6           0       -4.523360  -91.438482  126.936640
      7          6           0       -3.498279  -90.789067  126.037975
      8          8           0       -3.705846  -89.807862  125.324949
      9          8           0       -2.362238  -91.475839  125.975884
     10          1           0       -1.750494  -91.003523  125.379896
     11          1           0       -3.398242  -91.672118  130.979606
     12          1           0       -5.112558  -90.079673  129.225298
     13          1           0       -4.740981  -92.563667  128.745867
     14          1           0       -3.063788  -92.188342  128.359420
     15          1           0       -5.415231  -90.802883  126.946005
     16          1           0       -4.804819  -92.370920  126.429546
     17          1           0       -5.025031  -91.493633  131.041694
     18          7           0       -2.703596  -88.862521  130.242141
     19          6           0       -1.665118  -87.826471  130.243532
     20          6           0       -2.218610  -86.585181  129.509407
     21          8           0       -2.829734  -85.684999  130.073166
     22          6           0       -1.246660  -87.483130  131.679712
     23          6           0       -0.020578  -86.596187  131.710190
     24          6           0       -0.131933  -85.201993  131.755111
     25          6           0        1.263421  -87.158426  131.652843
     26          6           0        1.002338  -84.390982  131.748410
     27          6           0        2.403575  -86.362885  131.643260
     28          6           0        2.275366  -84.969249  131.692815
     29          8           0        3.426429  -84.237892  131.683783
     30          1           0       -3.175870  -89.113086  131.107044
     31          1           0       -0.802929  -88.216397  129.690991
     32          1           0       -2.091921  -86.993056  132.174795
     33          1           0       -1.046287  -88.424112  132.206929
     34          1           0       -1.116960  -84.746402  131.783737
     35          1           0        1.374714  -88.240826  131.626489
     36          1           0        0.898031  -83.308506  131.790600
     37          1           0        3.397689  -86.796542  131.609277
     38          1           0        3.212211  -83.294732  131.756565
     39          7           0       -2.018311  -86.614347  128.162115
     40          6           0       -2.680693  -85.664386  127.280847
     41          6           0       -4.102292  -85.374185  127.771925
     42          8           0       -4.988344  -86.222301  127.837163
     43          6           0       -2.741828  -86.306034  125.879999
     44          6           0       -3.620728  -85.576675  124.838086
     45          6           0       -4.413242  -86.545061  123.937035
     46          6           0       -5.747773  -87.035177  124.506091
     47          7           0       -5.606439  -87.895530  125.741102
     48          8           0       -4.325095  -84.085929  128.002680
     49          1           0       -5.242561  -83.984533  128.323497
     50          1           0       -1.817926  -87.535441  127.778603
     51          1           0       -2.136643  -84.715216  127.264660
     52          1           0       -1.715765  -86.392349  125.506696
     53          1           0       -3.083746  -87.337417  126.016869
     54          1           0       -2.986931  -84.946629  124.206742
     55          1           0       -4.323140  -84.884753  125.321696
     56          1           0       -4.670624  -86.041994  122.997629
     57          1           0       -3.792686  -87.408346  123.665463
     58          1           0       -6.389755  -86.194597  124.785288
     59          1           0       -6.274837  -87.642981  123.766172
     60          1           0       -5.265629  -87.342327  126.563514
     61          1           0       -4.937436  -88.696189  125.581989
     62          1           0       -6.515362  -88.283926  126.006515
 ---------------------------------------------------------------------

 SCF Done:  E(RB3LYP) =  -1526.31982028     A.U. after    3 cycles

 Alpha  occ. eigenvalues --  -19.31469 -19.31450 -19.26921 -19.26594 -19.23632
 Alpha  occ. eigenvalues --  -19.23134 -19.21509 -14.55529 -14.46578 -14.45434
 Alpha  occ. eigenvalues --  -14.43570 -10.45122 -10.44541 -10.39620 -10.38123
 Alpha  occ. eigenvalues --  -10.37470 -10.34775 -10.34106 -10.32914 -10.32233
 Alpha  occ. eigenvalues --  -10.31798 -10.30994 -10.30899 -10.30778 -10.30671
 Alpha  occ. eigenvalues --  -10.27403 -10.25619 -10.25425 -10.25157 -10.24969
 Alpha  occ. eigenvalues --  -10.24530  -1.23023  -1.22893  -1.14694  -1.13953
 Alpha  occ. eigenvalues --   -1.13810  -1.13151  -1.11733  -1.10680  -1.03530
 Alpha  occ. eigenvalues --   -1.02750  -1.00202  -0.92973  -0.91829  -0.91037
 Alpha  occ. eigenvalues --   -0.89049  -0.86950  -0.83250  -0.82674  -0.80859
 Alpha  occ. eigenvalues --   -0.80136  -0.77729  -0.75770  -0.74799  -0.72494
 Alpha  occ. eigenvalues --   -0.72339  -0.70624  -0.70035  -0.68885  -0.68789
 Alpha  occ. eigenvalues --   -0.68144  -0.66624  -0.65088  -0.63709  -0.63271
 Alpha  occ. eigenvalues --   -0.63091  -0.61820  -0.61085  -0.60527  -0.60273
 Alpha  occ. eigenvalues --   -0.59753  -0.59194  -0.58897  -0.58016  -0.57628
 Alpha  occ. eigenvalues --   -0.57419  -0.56170  -0.55484  -0.54860  -0.54330
 Alpha  occ. eigenvalues --   -0.53709  -0.53133  -0.52744  -0.52322  -0.52114
 Alpha  occ. eigenvalues --   -0.50854  -0.50526  -0.50190  -0.50045  -0.49868
 Alpha  occ. eigenvalues --   -0.49170  -0.48786  -0.48255  -0.47953  -0.47202
 Alpha  occ. eigenvalues --   -0.46936  -0.46404  -0.46347  -0.46131  -0.45742
 Alpha  occ. eigenvalues --   -0.45408  -0.45094  -0.43839  -0.43726  -0.43319
 Alpha  occ. eigenvalues --   -0.42094  -0.40772  -0.40681  -0.39690  -0.38917
 Alpha  occ. eigenvalues --   -0.38061  -0.37780  -0.35766  -0.35264  -0.33960
 Alpha  occ. eigenvalues --   -0.31280  -0.27917
 Alpha virt. eigenvalues --   -0.11831  -0.11248  -0.09551  -0.08338  -0.07421
 Alpha virt. eigenvalues --   -0.06268  -0.05218  -0.03660  -0.02976  -0.02366
 Alpha virt. eigenvalues --   -0.01886  -0.00802  -0.00187   0.00182   0.00897

 Mulliken charges:
               1
     1  N   -0.739662
     2  C   -0.070005
     3  C    0.627473
     4  O   -0.577919
     5  C   -0.275446
     6  C   -0.351497
     7  C    0.667999
     8  O   -0.534915
     9  O   -0.528632
    10  H    0.431124
    11  H    0.323252
    12  H    0.165053
    13  H    0.158366
    14  H    0.185770
    15  H    0.135780
    16  H    0.204917
    17  H    0.328393
    18  N   -0.598610
    19  C   -0.044255
    20  C    0.643194
    21  O   -0.521974
    22  C   -0.388700
    23  C    0.144493
    24  C   -0.186141
    25  C   -0.188227
    26  C   -0.195755
    27  C   -0.156763
    28  C    0.354158
    29  O   -0.634490
    30  H    0.375924
    31  H    0.178282
    32  H    0.179256
    33  H    0.156195
    34  H    0.157570
    35  H    0.124631
    36  H    0.129296
    37  H    0.150765
    38  H    0.412996
    39  N   -0.624191
    40  C    0.017098
    41  C    0.625735
    42  O   -0.534485
    43  C   -0.351221
    44  C   -0.291532
    45  C   -0.293058
    46  C   -0.187338
    47  N   -0.819139
    48  O   -0.526394
    49  H    0.429493
    50  H    0.374673
    51  H    0.196999
    52  H    0.188105
    53  H    0.161861
    54  H    0.183142
    55  H    0.156172
    56  H    0.186306
    57  H    0.184965
    58  H    0.199531
    59  H    0.202852
    60  H    0.444831
    61  H    0.444249
    62  H    0.389450
 Sum of Mulliken charges =   1.00000

 Dipole moment (field-independent basis, Debye):
    X=            -21.9686    Y=           -424.6513    Z=            608.8511  Tot=            742.6378
 Quadrupole moment (field-independent basis, Debye-Ang):
   XX=            -55.5845   YY=          37414.8907   ZZ=          77028.8106
   XY=           1947.4840   XZ=          -2776.5909   YZ=         -53840.4903

 Normal termination of Gaussian 16 at Tue May 24 19:13:50 2022.
