 Gaussian 16, Revision C.01,
 Gaussian 16:  ES64L-G16RevC.01  3-Jul-2019

 ----------------------------------------------------------------------
 # B3LYP/6-31G* empiricaldispersion=gd3 guess=read geom=check nosymm in
 tegral(ultrafinegrid)
 ----------------------------------------------------------------------

 ------------------------------------------------------
 Candidate Structure: Conf:304 Charge calc in gas phase
 ------------------------------------------------------
 Structure from the checkpoint file:  "conf-304.chk"
 Charge =  1 Multiplicity = 1

                          Input orientation:
 ---------------------------------------------------------------------
 Center     Atomic      Atomic             Coordinates (Angstroms)
 Number     Number       Type             X           Y           Z
 ---------------------------------------------------------------------
      1          7           0        0.784850  -89.785435  128.606609
      2          6           0        0.386555  -88.655089  129.446916
      3          6           0       -1.137837  -88.463344  129.413423
      4          8           0       -1.687532  -87.592367  130.129519
      5          6           0        0.889007  -88.708487  130.905591
      6          6           0        2.392973  -88.461779  131.028267
      7          6           0        2.778921  -87.015220  130.798056
      8          8           0        1.998976  -86.081862  130.686698
      9          8           0        4.105149  -86.859008  130.741104
     10          1           0        4.299090  -85.909587  130.616991
     11          1           0        0.916328  -90.633704  129.153174
     12          1           0        0.774057  -87.738048  128.982103
     13          1           0        0.646071  -89.693712  131.322748
     14          1           0        0.346809  -87.972557  131.504324
     15          1           0        2.969811  -89.086228  130.335588
     16          1           0        2.751782  -88.729397  132.030144
     17          1           0        1.644016  -89.605490  128.097458
     18          7           0       -1.811620  -89.227953  128.553082
     19          6           0       -3.247377  -89.071088  128.277242
     20          6           0       -3.378851  -87.815428  127.392873
     21          8           0       -3.335194  -87.870361  126.159849
     22          6           0       -3.824373  -90.316873  127.595089
     23          6           0       -5.331562  -90.231138  127.481446
     24          6           0       -5.947659  -89.756011  126.318547
     25          6           0       -6.145528  -90.589984  128.566612
     26          6           0       -7.335160  -89.645817  126.235202
     27          6           0       -7.529687  -90.483114  128.499620
     28          6           0       -8.132073  -90.009615  127.326699
     29          8           0       -9.491831  -89.928455  127.317080
     30          1           0       -1.230712  -89.834673  127.974023
     31          1           0       -3.749470  -88.903307  129.234606
     32          1           0       -3.365794  -90.416850  126.605530
     33          1           0       -3.532024  -91.189720  128.190899
     34          1           0       -5.335791  -89.461077  125.471407
     35          1           0       -5.688954  -90.972763  129.477540
     36          1           0       -7.798579  -89.282196  125.320295
     37          1           0       -8.161851  -90.770540  129.333341
     38          1           0       -9.795699  -89.628566  126.446045
     39          7           0       -3.438311  -86.644577  128.080892
     40          6           0       -3.302456  -85.356124  127.387204
     41          6           0       -1.818584  -85.234731  126.967842
     42          8           0       -0.969484  -84.610083  127.587493
     43          6           0       -3.908984  -84.167453  128.161558
     44          6           0       -3.154089  -83.500032  129.328817
     45          6           0       -2.978148  -84.320537  130.636325
     46          6           0       -1.556028  -84.279939  131.200336
     47          7           0       -0.621754  -85.066329  130.325566
     48          8           0       -1.473045  -85.940474  125.897609
     49          1           0       -2.212388  -86.544601  125.630514
     50          1           0       -3.194349  -86.701375  129.063998
     51          1           0       -3.889848  -85.462087  126.469813
     52          1           0       -4.086441  -83.384537  127.415050
     53          1           0       -4.900947  -84.495914  128.496399
     54          1           0       -3.713856  -82.590895  129.573202
     55          1           0       -2.185797  -83.154020  128.960062
     56          1           0       -3.642689  -83.928649  131.413429
     57          1           0       -3.273266  -85.369049  130.517854
     58          1           0       -1.176899  -83.255886  131.256740
     59          1           0       -1.505624  -84.725188  132.197266
     60          1           0       -0.920241  -86.070961  130.311458
     61          1           0        0.358267  -85.068821  130.638268
     62          1           0       -0.656003  -84.741953  129.337743
 ---------------------------------------------------------------------

 SCF Done:  E(RB3LYP) =  -1526.33416561     A.U. after    1 cycles

 Alpha  occ. eigenvalues --  -19.31865 -19.29507 -19.27262 -19.25961 -19.25636
 Alpha  occ. eigenvalues --  -19.24566 -19.24565 -14.53738 -14.49065 -14.48331
 Alpha  occ. eigenvalues --  -14.45075 -10.45195 -10.43851 -10.42032 -10.41091
 Alpha  occ. eigenvalues --  -10.36475 -10.35781 -10.35626 -10.35061 -10.32274
 Alpha  occ. eigenvalues --  -10.32050 -10.31488 -10.31436 -10.30621 -10.29901
 Alpha  occ. eigenvalues --  -10.28891 -10.26814 -10.26543 -10.26342 -10.26017
 Alpha  occ. eigenvalues --  -10.25576  -1.23242  -1.21383  -1.17275  -1.15967
 Alpha  occ. eigenvalues --   -1.14247  -1.12945  -1.12707  -1.09556  -1.05888
 Alpha  occ. eigenvalues --   -1.04904  -1.01804  -0.93127  -0.92253  -0.91567
 Alpha  occ. eigenvalues --   -0.89662  -0.87950  -0.84367  -0.83148  -0.81956
 Alpha  occ. eigenvalues --   -0.81213  -0.77244  -0.76583  -0.74927  -0.72910
 Alpha  occ. eigenvalues --   -0.71767  -0.71228  -0.70248  -0.70083  -0.69381
 Alpha  occ. eigenvalues --   -0.68703  -0.67670  -0.66205  -0.65863  -0.64251
 Alpha  occ. eigenvalues --   -0.63034  -0.62381  -0.61688  -0.61491  -0.61306
 Alpha  occ. eigenvalues --   -0.60831  -0.60520  -0.59577  -0.59291  -0.57861
 Alpha  occ. eigenvalues --   -0.57086  -0.56128  -0.55899  -0.55280  -0.54799
 Alpha  occ. eigenvalues --   -0.54274  -0.54187  -0.54027  -0.53537  -0.52855
 Alpha  occ. eigenvalues --   -0.52437  -0.51697  -0.51204  -0.50768  -0.50308
 Alpha  occ. eigenvalues --   -0.49779  -0.49241  -0.49050  -0.48762  -0.48181
 Alpha  occ. eigenvalues --   -0.48104  -0.47407  -0.47215  -0.46829  -0.45836
 Alpha  occ. eigenvalues --   -0.44979  -0.44690  -0.44514  -0.44422  -0.43330
 Alpha  occ. eigenvalues --   -0.42563  -0.41602  -0.40924  -0.40808  -0.40531
 Alpha  occ. eigenvalues --   -0.40241  -0.40042  -0.37356  -0.36932  -0.36517
 Alpha  occ. eigenvalues --   -0.32380  -0.28997
 Alpha virt. eigenvalues --   -0.12678  -0.11895  -0.11292  -0.09729  -0.07436
 Alpha virt. eigenvalues --   -0.06361  -0.04888  -0.04162  -0.03244  -0.02504
 Alpha virt. eigenvalues --   -0.01550  -0.00983   0.00073   0.00514   0.00889

 Mulliken charges:
               1
     1  N   -0.752508
     2  C   -0.077733
     3  C    0.642272
     4  O   -0.604839
     5  C   -0.276596
     6  C   -0.364267
     7  C    0.600449
     8  O   -0.509653
     9  O   -0.532761
    10  H    0.430663
    11  H    0.329374
    12  H    0.183495
    13  H    0.164217
    14  H    0.170539
    15  H    0.186937
    16  H    0.215762
    17  H    0.338826
    18  N   -0.587431
    19  C   -0.051780
    20  C    0.642116
    21  O   -0.546244
    22  C   -0.380273
    23  C    0.141987
    24  C   -0.185881
    25  C   -0.189899
    26  C   -0.194974
    27  C   -0.156246
    28  C    0.355269
    29  O   -0.631719
    30  H    0.384753
    31  H    0.188410
    32  H    0.178919
    33  H    0.164902
    34  H    0.154534
    35  H    0.127355
    36  H    0.133618
    37  H    0.154585
    38  H    0.415090
    39  N   -0.616210
    40  C   -0.094753
    41  C    0.621353
    42  O   -0.497381
    43  C   -0.301744
    44  C   -0.296132
    45  C   -0.300003
    46  C   -0.187140
    47  N   -0.831817
    48  O   -0.555193
    49  H    0.458331
    50  H    0.388131
    51  H    0.201344
    52  H    0.178895
    53  H    0.175183
    54  H    0.173994
    55  H    0.173584
    56  H    0.190343
    57  H    0.162757
    58  H    0.203879
    59  H    0.198130
    60  H    0.428814
    61  H    0.426406
    62  H    0.437963
 Sum of Mulliken charges =   1.00000

 Dipole moment (field-independent basis, Debye):
    X=             -4.7401    Y=           -417.0104    Z=            623.2257  Tot=            749.8869
 Quadrupole moment (field-independent basis, Debye-Ang):
   XX=           -118.1851   YY=          36059.7220   ZZ=          80702.4278
   XY=            400.1841   XZ=           -587.8228   YZ=         -54099.5216

 Normal termination of Gaussian 16 at Tue May 24 19:13:20 2022.
