 Gaussian 16, Revision C.01,
 Gaussian 16:  ES64L-G16RevC.01  3-Jul-2019

 ----------------------------------------------------------------------
 # B3LYP/6-31G* empiricaldispersion=gd3 guess=read geom=check nosymm in
 tegral(ultrafinegrid)
 ----------------------------------------------------------------------

 ------------------------------------------------------
 Candidate Structure: Conf:428 Charge calc in gas phase
 ------------------------------------------------------
 Structure from the checkpoint file:  "conf-428.chk"
 Charge =  1 Multiplicity = 1

                          Input orientation:
 ---------------------------------------------------------------------
 Center     Atomic      Atomic             Coordinates (Angstroms)
 Number     Number       Type             X           Y           Z
 ---------------------------------------------------------------------
      1          7           0       -5.130521  -85.980833  131.808055
      2          6           0       -4.769262  -87.347492  131.422260
      3          6           0       -3.498230  -87.316114  130.558194
      4          8           0       -2.758983  -88.310922  130.474062
      5          6           0       -4.642138  -88.344893  132.596237
      6          6           0       -4.709803  -89.837483  132.212645
      7          6           0       -3.428363  -90.480029  131.738206
      8          8           0       -3.326234  -91.202169  130.747212
      9          8           0       -2.422347  -90.308174  132.589651
     10          1           0       -1.632526  -90.749221  132.223393
     11          1           0       -4.533416  -85.652887  132.566550
     12          1           0       -5.569651  -87.701040  130.754546
     13          1           0       -5.481488  -88.142829  133.270818
     14          1           0       -3.723429  -88.149909  133.159519
     15          1           0       -5.475216  -90.006413  131.447749
     16          1           0       -5.013422  -90.413765  133.096704
     17          1           0       -6.089692  -85.939200  132.144364
     18          7           0       -3.284008  -86.164110  129.902109
     19          6           0       -2.132878  -85.922267  129.025850
     20          6           0       -2.335546  -86.737344  127.729624
     21          8           0       -2.929976  -86.305696  126.748785
     22          6           0       -1.987560  -84.423519  128.726168
     23          6           0       -0.681063  -84.111396  128.027876
     24          6           0        0.473799  -83.840981  128.770447
     25          6           0       -0.582559  -84.123064  126.628165
     26          6           0        1.693805  -83.587716  128.145011
     27          6           0        0.627340  -83.872036  125.990146
     28          6           0        1.773449  -83.602674  126.747709
     29          8           0        2.929992  -83.363596  126.065604
     30          1           0       -3.965546  -85.427510  130.065574
     31          1           0       -1.237012  -86.283748  129.542908
     32          1           0       -2.839169  -84.114152  128.110454
     33          1           0       -2.045999  -83.882420  129.678581
     34          1           0        0.423224  -83.816332  129.857295
     35          1           0       -1.466045  -84.340424  126.035955
     36          1           0        2.578955  -83.370499  128.739591
     37          1           0        0.705039  -83.872678  124.907729
     38          1           0        3.641519  -83.160306  126.692587
     39          7           0       -1.846765  -88.006895  127.799965
     40          6           0       -2.157567  -88.991389  126.773942
     41          6           0       -3.594690  -88.814445  126.273710
     42          8           0       -4.587294  -88.963678  126.981838
     43          6           0       -2.004769  -90.385218  127.415313
     44          6           0       -2.519169  -91.577284  126.576079
     45          6           0       -3.227363  -92.650208  127.427526
     46          6           0       -4.710687  -92.396215  127.711003
     47          7           0       -4.969492  -91.178013  128.568023
     48          8           0       -3.672400  -88.609709  124.964531
     49          1           0       -4.612738  -88.492930  124.725698
     50          1           0       -1.695427  -88.356487  128.743450
     51          1           0       -1.491520  -88.869389  125.914478
     52          1           0       -0.945863  -90.528707  127.655721
     53          1           0       -2.515292  -90.347992  128.383472
     54          1           0       -1.678102  -92.041353  126.052176
     55          1           0       -3.202390  -91.243386  125.783781
     56          1           0       -3.197469  -93.611938  126.902178
     57          1           0       -2.694367  -92.798938  128.375110
     58          1           0       -5.269164  -92.246321  126.782403
     59          1           0       -5.145671  -93.245697  128.243804
     60          1           0       -5.961177  -91.124908  128.815376
     61          1           0       -4.739579  -90.289841  128.060756
     62          1           0       -4.406493  -91.203126  129.460131
 ---------------------------------------------------------------------

 SCF Done:  E(RB3LYP) =  -1526.31972222     A.U. after    1 cycles

 Alpha  occ. eigenvalues --  -19.31448 -19.31375 -19.26910 -19.26514 -19.23636
 Alpha  occ. eigenvalues --  -19.23107 -19.21491 -14.55489 -14.46558 -14.45438
 Alpha  occ. eigenvalues --  -14.43561 -10.45114 -10.44476 -10.39598 -10.38107
 Alpha  occ. eigenvalues --  -10.37434 -10.34722 -10.34089 -10.32912 -10.32229
 Alpha  occ. eigenvalues --  -10.31765 -10.30994 -10.30862 -10.30732 -10.30667
 Alpha  occ. eigenvalues --  -10.27408 -10.25653 -10.25599 -10.25132 -10.24937
 Alpha  occ. eigenvalues --  -10.24363  -1.23018  -1.22809  -1.14673  -1.13927
 Alpha  occ. eigenvalues --   -1.13759  -1.13132  -1.11734  -1.10641  -1.03510
 Alpha  occ. eigenvalues --   -1.02728  -1.00192  -0.92937  -0.91820  -0.91033
 Alpha  occ. eigenvalues --   -0.89016  -0.86932  -0.83212  -0.82664  -0.80861
 Alpha  occ. eigenvalues --   -0.80124  -0.77679  -0.75756  -0.74774  -0.72477
 Alpha  occ. eigenvalues --   -0.72321  -0.70587  -0.69988  -0.68838  -0.68744
 Alpha  occ. eigenvalues --   -0.68199  -0.66621  -0.65086  -0.63744  -0.63207
 Alpha  occ. eigenvalues --   -0.63023  -0.61781  -0.61069  -0.60431  -0.60213
 Alpha  occ. eigenvalues --   -0.59740  -0.59224  -0.58961  -0.57956  -0.57607
 Alpha  occ. eigenvalues --   -0.57378  -0.56151  -0.55412  -0.54757  -0.54624
 Alpha  occ. eigenvalues --   -0.53345  -0.53089  -0.52724  -0.52331  -0.52085
 Alpha  occ. eigenvalues --   -0.51122  -0.50554  -0.50155  -0.50071  -0.49766
 Alpha  occ. eigenvalues --   -0.48988  -0.48742  -0.48244  -0.47928  -0.47303
 Alpha  occ. eigenvalues --   -0.47023  -0.46409  -0.46314  -0.46180  -0.45404
 Alpha  occ. eigenvalues --   -0.45388  -0.45035  -0.43820  -0.43634  -0.43510
 Alpha  occ. eigenvalues --   -0.41969  -0.40760  -0.40606  -0.39701  -0.38910
 Alpha  occ. eigenvalues --   -0.38036  -0.37758  -0.35743  -0.35246  -0.33949
 Alpha  occ. eigenvalues --   -0.31266  -0.27926
 Alpha virt. eigenvalues --   -0.11753  -0.11236  -0.09531  -0.08309  -0.07449
 Alpha virt. eigenvalues --   -0.06205  -0.05233  -0.03647  -0.02894  -0.02344
 Alpha virt. eigenvalues --   -0.01877  -0.00765  -0.00163   0.00200   0.00935

 Mulliken charges:
               1
     1  N   -0.739529
     2  C   -0.070255
     3  C    0.627444
     4  O   -0.577780
     5  C   -0.275391
     6  C   -0.351469
     7  C    0.667949
     8  O   -0.534668
     9  O   -0.528989
    10  H    0.430869
    11  H    0.322896
    12  H    0.165513
    13  H    0.158234
    14  H    0.185371
    15  H    0.135868
    16  H    0.204703
    17  H    0.328351
    18  N   -0.598464
    19  C   -0.042426
    20  C    0.643413
    21  O   -0.521493
    22  C   -0.389323
    23  C    0.144544
    24  C   -0.188569
    25  C   -0.188445
    26  C   -0.191822
    27  C   -0.160916
    28  C    0.354350
    29  O   -0.634267
    30  H    0.375884
    31  H    0.176862
    32  H    0.180651
    33  H    0.155056
    34  H    0.124553
    35  H    0.159434
    36  H    0.129010
    37  H    0.150855
    38  H    0.412742
    39  N   -0.623697
    40  C    0.017335
    41  C    0.625853
    42  O   -0.534934
    43  C   -0.351269
    44  C   -0.291535
    45  C   -0.292950
    46  C   -0.187311
    47  N   -0.819212
    48  O   -0.525885
    49  H    0.429720
    50  H    0.373823
    51  H    0.198359
    52  H    0.187630
    53  H    0.161615
    54  H    0.183337
    55  H    0.156575
    56  H    0.186364
    57  H    0.184490
    58  H    0.199724
    59  H    0.202702
    60  H    0.389411
    61  H    0.444966
    62  H    0.444141
 Sum of Mulliken charges =   1.00000

 Dipole moment (field-independent basis, Debye):
    X=            -19.2860    Y=           -431.8881    Z=            622.9946  Tot=            758.3017
 Quadrupole moment (field-independent basis, Debye-Ang):
   XX=            -59.6360   YY=          38691.2569   ZZ=          80655.7654
   XY=           1748.9523   XZ=          -2498.7809   YZ=         -55990.7546

 Normal termination of Gaussian 16 at Tue May 24 19:13:21 2022.
