 Gaussian 16, Revision C.01,
 Gaussian 16:  ES64L-G16RevC.01  3-Jul-2019

 ----------------------------------------------------------------------
 # B3LYP/6-31G* empiricaldispersion=gd3 guess=read geom=check nosymm in
 tegral(ultrafinegrid)
 ----------------------------------------------------------------------

 ------------------------------------------------------
 Candidate Structure: Conf:472 Charge calc in gas phase
 ------------------------------------------------------
 Structure from the checkpoint file:  "conf-472.chk"
 Charge =  1 Multiplicity = 1

                          Input orientation:
 ---------------------------------------------------------------------
 Center     Atomic      Atomic             Coordinates (Angstroms)
 Number     Number       Type             X           Y           Z
 ---------------------------------------------------------------------
      1          7           0       -6.167446  -87.125844  130.018028
      2          6           0       -5.412202  -87.025353  128.776039
      3          6           0       -4.159767  -87.908497  128.600091
      4          8           0       -3.626146  -87.999561  127.483478
      5          6           0       -6.348079  -87.198008  127.566134
      6          6           0       -7.359101  -86.059045  127.438000
      7          6           0       -6.770296  -84.770294  126.923497
      8          8           0       -5.574322  -84.550354  126.749149
      9          8           0       -7.712380  -83.855316  126.674319
     10          1           0       -7.289098  -83.037862  126.352298
     11          1           0       -5.673400  -86.767734  130.829902
     12          1           0       -5.002363  -86.007703  128.732955
     13          1           0       -6.895918  -88.141788  127.676439
     14          1           0       -5.742537  -87.281206  126.661670
     15          1           0       -7.819404  -85.844952  128.411964
     16          1           0       -8.184615  -86.324421  126.767541
     17          1           0       -6.483106  -88.073599  130.209667
     18          7           0       -3.640265  -88.479605  129.708410
     19          6           0       -2.311393  -89.119481  129.746699
     20          6           0       -1.268932  -87.971792  129.758098
     21          8           0       -0.711839  -87.568930  130.766210
     22          6           0       -2.177172  -90.039207  130.965127
     23          6           0       -0.951943  -90.924082  130.869916
     24          6           0       -1.015056  -92.147498  130.186261
     25          6           0        0.273944  -90.535238  131.421069
     26          6           0        0.103082  -92.963442  130.055425
     27          6           0        1.403171  -91.344267  131.300461
     28          6           0        1.321609  -92.562457  130.616795
     29          8           0        2.385023  -93.402349  130.461299
     30          1           0       -4.079293  -88.279398  130.597207
     31          1           0       -2.211490  -89.700346  128.825129
     32          1           0       -2.132833  -89.417978  131.866850
     33          1           0       -3.082955  -90.654879  131.022878
     34          1           0       -1.959906  -92.474091  129.755905
     35          1           0        0.347808  -89.583619  131.937790
     36          1           0        0.053558  -93.914289  129.534936
     37          1           0        2.347654  -91.029666  131.740292
     38          1           0        3.158638  -93.033011  130.914986
     39          7           0       -1.123021  -87.395807  128.520088
     40          6           0       -0.596750  -86.060770  128.354184
     41          6           0       -1.601459  -84.968929  128.749826
     42          8           0       -1.580298  -83.823083  128.314370
     43          6           0       -0.053757  -85.836712  126.927329
     44          6           0       -0.989734  -86.267323  125.777172
     45          6           0       -2.368436  -85.582783  125.706252
     46          6           0       -2.283523  -84.098529  125.305529
     47          7           0       -3.184732  -83.243870  126.172812
     48          8           0       -2.514644  -85.359154  129.648968
     49          1           0       -3.021414  -84.566918  129.911955
     50          1           0       -1.806980  -87.700985  127.829105
     51          1           0        0.222979  -85.938738  129.075377
     52          1           0        0.227696  -84.782827  126.834634
     53          1           0        0.869694  -86.417271  126.839180
     54          1           0       -1.157155  -87.348257  125.828752
     55          1           0       -0.456933  -86.101063  124.832069
     56          1           0       -2.992178  -86.115006  124.981883
     57          1           0       -2.903263  -85.703220  126.654074
     58          1           0       -1.279729  -83.692002  125.442650
     59          1           0       -2.585162  -83.933823  124.269003
     60          1           0       -3.220506  -82.274732  125.844515
     61          1           0       -2.782070  -83.249236  127.131494
     62          1           0       -4.152844  -83.622602  126.234551
 ---------------------------------------------------------------------

 SCF Done:  E(RB3LYP) =  -1526.30896890     A.U. after    2 cycles

 Alpha  occ. eigenvalues --  -19.33564 -19.32792 -19.28432 -19.28220 -19.23342
 Alpha  occ. eigenvalues --  -19.22527 -19.21049 -14.57844 -14.47185 -14.44729
 Alpha  occ. eigenvalues --  -14.43363 -10.45952 -10.45933 -10.39317 -10.38036
 Alpha  occ. eigenvalues --  -10.37859 -10.35235 -10.33488 -10.32702 -10.31621
 Alpha  occ. eigenvalues --  -10.30983 -10.30684 -10.30192 -10.30145 -10.29320
 Alpha  occ. eigenvalues --  -10.27199 -10.25331 -10.25111 -10.24812 -10.24651
 Alpha  occ. eigenvalues --  -10.24218  -1.24727  -1.24119  -1.15483  -1.15131
 Alpha  occ. eigenvalues --   -1.14382  -1.12756  -1.12658  -1.11438  -1.03418
 Alpha  occ. eigenvalues --   -1.02606  -1.00035  -0.92751  -0.91520  -0.90440
 Alpha  occ. eigenvalues --   -0.88753  -0.86528  -0.83572  -0.83020  -0.80540
 Alpha  occ. eigenvalues --   -0.80000  -0.78727  -0.75977  -0.74999  -0.73368
 Alpha  occ. eigenvalues --   -0.72202  -0.71558  -0.70502  -0.68987  -0.68135
 Alpha  occ. eigenvalues --   -0.67849  -0.67680  -0.64965  -0.64663  -0.64118
 Alpha  occ. eigenvalues --   -0.62687  -0.62434  -0.61884  -0.61605  -0.60704
 Alpha  occ. eigenvalues --   -0.60143  -0.59977  -0.59380  -0.58779  -0.57947
 Alpha  occ. eigenvalues --   -0.57844  -0.55591  -0.54875  -0.54487  -0.54173
 Alpha  occ. eigenvalues --   -0.53832  -0.53273  -0.52887  -0.52227  -0.51762
 Alpha  occ. eigenvalues --   -0.51513  -0.51368  -0.50620  -0.49746  -0.49487
 Alpha  occ. eigenvalues --   -0.48802  -0.48106  -0.47562  -0.47201  -0.47044
 Alpha  occ. eigenvalues --   -0.46479  -0.46056  -0.45930  -0.45701  -0.45399
 Alpha  occ. eigenvalues --   -0.45211  -0.44957  -0.44725  -0.44393  -0.43122
 Alpha  occ. eigenvalues --   -0.42247  -0.41814  -0.41691  -0.39408  -0.39148
 Alpha  occ. eigenvalues --   -0.38636  -0.37726  -0.35464  -0.33739  -0.33435
 Alpha  occ. eigenvalues --   -0.30961  -0.27601
 Alpha virt. eigenvalues --   -0.13698  -0.12462  -0.09808  -0.08800  -0.06801
 Alpha virt. eigenvalues --   -0.06616  -0.05933  -0.05077  -0.04837  -0.03483
 Alpha virt. eigenvalues --   -0.03150  -0.01464  -0.01341  -0.00180   0.01157

 Mulliken charges:
               1
     1  N   -0.729411
     2  C   -0.073912
     3  C    0.632658
     4  O   -0.565254
     5  C   -0.263024
     6  C   -0.367928
     7  C    0.600092
     8  O   -0.518551
     9  O   -0.521855
    10  H    0.415458
    11  H    0.314370
    12  H    0.155149
    13  H    0.161089
    14  H    0.187221
    15  H    0.225432
    16  H    0.206570
    17  H    0.321757
    18  N   -0.600497
    19  C   -0.065086
    20  C    0.647661
    21  O   -0.510182
    22  C   -0.379822
    23  C    0.143449
    24  C   -0.188248
    25  C   -0.184592
    26  C   -0.156845
    27  C   -0.195819
    28  C    0.354078
    29  O   -0.634899
    30  H    0.324113
    31  H    0.191435
    32  H    0.169288
    33  H    0.155586
    34  H    0.125652
    35  H    0.158547
    36  H    0.150367
    37  H    0.128885
    38  H    0.412704
    39  N   -0.636389
    40  C   -0.069840
    41  C    0.623544
    42  O   -0.522536
    43  C   -0.286585
    44  C   -0.307138
    45  C   -0.304945
    46  C   -0.184544
    47  N   -0.785305
    48  O   -0.537015
    49  H    0.420972
    50  H    0.393909
    51  H    0.232309
    52  H    0.163999
    53  H    0.185826
    54  H    0.186008
    55  H    0.164891
    56  H    0.188581
    57  H    0.175710
    58  H    0.211976
    59  H    0.206967
    60  H    0.397186
    61  H    0.428391
    62  H    0.428391
 Sum of Mulliken charges =   1.00000

 Dipole moment (field-independent basis, Debye):
    X=            -18.0032    Y=           -406.4216    Z=            611.0978  Tot=            734.1275
 Quadrupole moment (field-independent basis, Debye-Ang):
   XX=            -73.6217   YY=          34237.3985   ZZ=          77594.1411
   XY=           1518.8064   XZ=          -2290.9796   YZ=         -51730.6344

 Normal termination of Gaussian 16 at Tue May 24 19:13:35 2022.
