 Gaussian 16, Revision C.01,
 Gaussian 16:  ES64L-G16RevC.01  3-Jul-2019

 ----------------------------------------------------------------------
 # B3LYP/6-31G* empiricaldispersion=gd3 guess=read geom=check nosymm in
 tegral(ultrafinegrid)
 ----------------------------------------------------------------------

 ------------------------------------------------------
 Candidate Structure: Conf:102 Charge calc in gas phase
 ------------------------------------------------------
 Structure from the checkpoint file:  "conf-102.chk"
 Charge =  1 Multiplicity = 1

                          Input orientation:
 ---------------------------------------------------------------------
 Center     Atomic      Atomic             Coordinates (Angstroms)
 Number     Number       Type             X           Y           Z
 ---------------------------------------------------------------------
      1          7           0       -4.787862  -90.335894  127.084803
      2          6           0       -4.951636  -88.964091  127.536367
      3          6           0       -3.693688  -88.065074  127.614601
      4          8           0       -3.800795  -86.854131  127.883017
      5          6           0       -6.039539  -88.262412  126.696355
      6          6           0       -7.402472  -88.947484  126.789701
      7          6           0       -8.087765  -88.801445  128.126031
      8          8           0       -7.688498  -88.151771  129.088901
      9          8           0       -9.235698  -89.477311  128.170923
     10          1           0       -9.642951  -89.342366  129.048640
     11          1           0       -4.290954  -90.937827  127.733283
     12          1           0       -5.306192  -89.019627  128.574272
     13          1           0       -5.721482  -88.262826  125.646441
     14          1           0       -6.109746  -87.213304  126.994076
     15          1           0       -7.307711  -90.019646  126.584939
     16          1           0       -8.092773  -88.551890  126.034326
     17          1           0       -4.386749  -90.413783  126.154205
     18          7           0       -2.511027  -88.674438  127.414196
     19          6           0       -1.196778  -88.058872  127.661957
     20          6           0       -1.088644  -87.878889  129.192655
     21          8           0       -0.815701  -88.805343  129.944807
     22          6           0       -0.074433  -88.953198  127.119713
     23          6           0        1.274740  -88.275010  127.221621
     24          6           0        2.050149  -88.378416  128.387069
     25          6           0        1.759110  -87.490459  126.169295
     26          6           0        3.270343  -87.721421  128.498452
     27          6           0        2.981129  -86.826604  126.266507
     28          6           0        3.742435  -86.940977  127.435745
     29          8           0        4.945228  -86.323379  127.603962
     30          1           0       -2.524744  -89.678622  127.292333
     31          1           0       -1.179184  -87.090072  127.153645
     32          1           0       -0.078532  -89.887347  127.694105
     33          1           0       -0.304233  -89.195931  126.075168
     34          1           0        1.687290  -88.977637  129.217075
     35          1           0        1.181682  -87.401218  125.251226
     36          1           0        3.876459  -87.805425  129.394553
     37          1           0        3.346462  -86.228808  125.433983
     38          1           0        5.181485  -85.841013  126.796275
     39          7           0       -1.451292  -86.640303  129.621594
     40          6           0       -1.878793  -86.375289  130.990953
     41          6           0       -2.513297  -87.595155  131.658536
     42          8           0       -2.279091  -87.979268  132.769850
     43          6           0       -2.880260  -85.191138  130.910533
     44          6           0       -3.928382  -85.027996  132.033052
     45          6           0       -5.241547  -84.438676  131.472820
     46          6           0       -6.238299  -85.470887  130.931984
     47          7           0       -5.665319  -86.451384  129.940026
     48          8           0       -3.533869  -88.159506  130.901830
     49          1           0       -3.808915  -88.951063  131.404739
     50          1           0       -1.865729  -86.048839  128.913145
     51          1           0       -1.025505  -86.129419  131.628702
     52          1           0       -2.301588  -84.266313  130.813775
     53          1           0       -3.401725  -85.305674  129.956156
     54          1           0       -3.536643  -84.373172  132.816485
     55          1           0       -4.141142  -85.981532  132.532788
     56          1           0       -5.780144  -83.898131  132.259263
     57          1           0       -5.015475  -83.696379  130.696515
     58          1           0       -6.635592  -86.085462  131.745056
     59          1           0       -7.081129  -84.981002  130.438324
     60          1           0       -4.939545  -87.055597  130.365086
     61          1           0       -5.196497  -86.051088  129.112956
     62          1           0       -6.412085  -87.080422  129.570381
 ---------------------------------------------------------------------

 SCF Done:  E(RB3LYP) =  -1526.30923342     A.U. after    1 cycles

 Alpha  occ. eigenvalues --  -19.32485 -19.32313 -19.28130 -19.25796 -19.24738
 Alpha  occ. eigenvalues --  -19.24193 -19.22237 -14.55517 -14.48776 -14.46767
 Alpha  occ. eigenvalues --  -14.44598 -10.45770 -10.43829 -10.41283 -10.39109
 Alpha  occ. eigenvalues --  -10.37667 -10.35616 -10.35310 -10.34279 -10.32326
 Alpha  occ. eigenvalues --  -10.31933 -10.31670 -10.31651 -10.31360 -10.31235
 Alpha  occ. eigenvalues --  -10.28577 -10.26449 -10.26335 -10.25775 -10.25698
 Alpha  occ. eigenvalues --  -10.25013  -1.23892  -1.22381  -1.16114  -1.14777
 Alpha  occ. eigenvalues --   -1.14148  -1.13697  -1.12326  -1.11023  -1.05187
 Alpha  occ. eigenvalues --   -1.03954  -1.01454  -0.93581  -0.92636  -0.91348
 Alpha  occ. eigenvalues --   -0.89694  -0.87942  -0.84108  -0.83805  -0.81556
 Alpha  occ. eigenvalues --   -0.80973  -0.77790  -0.76834  -0.75485  -0.73459
 Alpha  occ. eigenvalues --   -0.71690  -0.71448  -0.70577  -0.69960  -0.69156
 Alpha  occ. eigenvalues --   -0.69011  -0.67998  -0.65881  -0.64678  -0.63569
 Alpha  occ. eigenvalues --   -0.63143  -0.62384  -0.62117  -0.61230  -0.61048
 Alpha  occ. eigenvalues --   -0.60719  -0.60374  -0.59430  -0.59302  -0.58937
 Alpha  occ. eigenvalues --   -0.58089  -0.56777  -0.55826  -0.55412  -0.54737
 Alpha  occ. eigenvalues --   -0.54388  -0.54176  -0.53475  -0.53232  -0.52806
 Alpha  occ. eigenvalues --   -0.52449  -0.51648  -0.51180  -0.50761  -0.50012
 Alpha  occ. eigenvalues --   -0.49529  -0.49403  -0.48834  -0.48497  -0.47956
 Alpha  occ. eigenvalues --   -0.47429  -0.47061  -0.46865  -0.46719  -0.46467
 Alpha  occ. eigenvalues --   -0.46116  -0.45395  -0.45049  -0.44356  -0.44325
 Alpha  occ. eigenvalues --   -0.42854  -0.41749  -0.40984  -0.40387  -0.39869
 Alpha  occ. eigenvalues --   -0.39621  -0.39157  -0.36599  -0.35366  -0.34872
 Alpha  occ. eigenvalues --   -0.31960  -0.28612
 Alpha virt. eigenvalues --   -0.12332  -0.11460  -0.10874  -0.08235  -0.07216
 Alpha virt. eigenvalues --   -0.06806  -0.06078  -0.04683  -0.04490  -0.03593
 Alpha virt. eigenvalues --   -0.02598  -0.01036  -0.00711  -0.00020   0.00256

 Mulliken charges:
               1
     1  N   -0.733874
     2  C   -0.077754
     3  C    0.649335
     4  O   -0.599794
     5  C   -0.269087
     6  C   -0.359622
     7  C    0.605559
     8  O   -0.522246
     9  O   -0.525567
    10  H    0.431078
    11  H    0.327653
    12  H    0.154819
    13  H    0.168373
    14  H    0.155579
    15  H    0.228367
    16  H    0.209654
    17  H    0.323752
    18  N   -0.597243
    19  C   -0.044909
    20  C    0.647128
    21  O   -0.520894
    22  C   -0.392633
    23  C    0.144396
    24  C   -0.191016
    25  C   -0.189842
    26  C   -0.160467
    27  C   -0.191433
    28  C    0.355695
    29  O   -0.631807
    30  H    0.329584
    31  H    0.177824
    32  H    0.176582
    33  H    0.158265
    34  H    0.161179
    35  H    0.127151
    36  H    0.155582
    37  H    0.132129
    38  H    0.414157
    39  N   -0.610120
    40  C    0.026126
    41  C    0.597493
    42  O   -0.419979
    43  C   -0.353102
    44  C   -0.296862
    45  C   -0.288216
    46  C   -0.183148
    47  N   -0.842730
    48  O   -0.621063
    49  H    0.427468
    50  H    0.356855
    51  H    0.211978
    52  H    0.198018
    53  H    0.141546
    54  H    0.190852
    55  H    0.162247
    56  H    0.191287
    57  H    0.171809
    58  H    0.200992
    59  H    0.205486
    60  H    0.433440
    61  H    0.423519
    62  H    0.450452
 Sum of Mulliken charges =   1.00000

 Dipole moment (field-independent basis, Debye):
    X=            -24.7960    Y=           -417.7932    Z=            617.5241  Tot=            745.9907
 Quadrupole moment (field-independent basis, Debye-Ang):
   XX=             -8.0914   YY=          36187.0063   ZZ=          79235.9273
   XY=           2172.2066   XZ=          -3218.4114   YZ=         -53697.6134

 Normal termination of Gaussian 16 at Tue May 24 19:13:22 2022.
