 Gaussian 16, Revision C.01,
 Gaussian 16:  ES64L-G16RevC.01  3-Jul-2019

 ----------------------------------------------------------------------
 # B3LYP/6-31G* empiricaldispersion=gd3 guess=read geom=check nosymm in
 tegral(ultrafinegrid)
 ----------------------------------------------------------------------

 -----------------------------------------------------
 Candidate Structure: Conf:34 Charge calc in gas phase
 -----------------------------------------------------
 Structure from the checkpoint file:  "conf-34.chk"
 Charge =  1 Multiplicity = 1

                          Input orientation:
 ---------------------------------------------------------------------
 Center     Atomic      Atomic             Coordinates (Angstroms)
 Number     Number       Type             X           Y           Z
 ---------------------------------------------------------------------
      1          7           0       -0.787730  -92.023023  127.091282
      2          6           0       -2.139271  -91.531394  126.790216
      3          6           0       -2.300516  -90.076685  127.264937
      4          8           0       -3.333710  -89.424631  127.066849
      5          6           0       -2.574553  -91.612538  125.311674
      6          6           0       -2.620188  -93.033489  124.738919
      7          6           0       -1.266862  -93.559900  124.265555
      8          8           0       -0.229116  -92.940887  124.314507
      9          8           0       -1.275165  -94.809909  123.747645
     10          1           0       -2.174584  -95.178637  123.746997
     11          1           0       -0.225019  -92.047979  126.242449
     12          1           0       -2.860690  -92.103267  127.390281
     13          1           0       -1.890831  -91.009461  124.702886
     14          1           0       -3.563376  -91.152413  125.235645
     15          1           0       -3.295828  -93.061486  123.872539
     16          1           0       -3.037295  -93.743083  125.468813
     17          1           0       -0.812992  -92.972246  127.450860
     18          7           0       -1.233078  -89.563731  127.917320
     19          6           0       -1.304908  -88.205838  128.399470
     20          6           0       -2.333352  -88.080178  129.546634
     21          8           0       -2.140625  -88.559144  130.647184
     22          6           0        0.042785  -87.657364  128.910453
     23          6           0       -0.172628  -86.251851  129.437409
     24          6           0       -0.279263  -86.004899  130.812854
     25          6           0       -0.437235  -85.192859  128.557808
     26          6           0       -0.679799  -84.761241  131.298417
     27          6           0       -0.845922  -83.942321  129.027402
     28          6           0       -0.993720  -83.733918  130.404112
     29          8           0       -1.472996  -82.562785  130.931720
     30          1           0       -0.463738  -90.203731  128.100899
     31          1           0       -1.639600  -87.577869  127.565924
     32          1           0        0.413343  -88.311397  129.706146
     33          1           0        0.764990  -87.676949  128.086344
     34          1           0       -0.084296  -86.811142  131.513404
     35          1           0       -0.340081  -85.346760  127.485423
     36          1           0       -0.760192  -84.573738  132.364686
     37          1           0       -1.061282  -83.138677  128.326228
     38          1           0       -1.495651  -81.885476  130.237105
     39          7           0       -3.409440  -87.270483  129.191890
     40          6           0       -4.454981  -86.779946  130.085640
     41          6           0       -4.880608  -85.403597  129.570465
     42          8           0       -5.994488  -84.939964  129.791838
     43          6           0       -3.968701  -86.623657  131.563577
     44          6           0       -4.824275  -85.679906  132.434532
     45          6           0       -4.341063  -84.211470  132.355322
     46          6           0       -5.383886  -83.149633  132.689543
     47          7           0       -6.576106  -83.225914  131.735510
     48          8           0       -3.951704  -84.676234  128.965203
     49          1           0       -3.130947  -85.218784  128.880540
     50          1           0       -3.712980  -87.486863  128.241319
     51          1           0       -5.350375  -87.412373  130.069856
     52          1           0       -3.936787  -87.623845  131.993396
     53          1           0       -2.936321  -86.265051  131.551507
     54          1           0       -4.766405  -86.013923  133.475711
     55          1           0       -5.877247  -85.776408  132.142950
     56          1           0       -3.510463  -84.063340  133.054431
     57          1           0       -3.916140  -83.975049  131.374890
     58          1           0       -5.787629  -83.248869  133.700322
     59          1           0       -4.964352  -82.147716  132.576460
     60          1           0       -7.051580  -82.324200  131.639799
     61          1           0       -7.268716  -83.906124  132.061948
     62          1           0       -6.289626  -83.587256  130.787790
 ---------------------------------------------------------------------

 SCF Done:  E(RB3LYP) =  -1526.28243863     A.U. after    1 cycles

 Alpha  occ. eigenvalues --  -19.31959 -19.27775 -19.27182 -19.26389 -19.22009
 Alpha  occ. eigenvalues --  -19.20606 -19.19285 -14.59708 -14.46315 -14.43387
 Alpha  occ. eigenvalues --  -14.39104 -10.45010 -10.39387 -10.39129 -10.38641
 Alpha  occ. eigenvalues --  -10.35792 -10.35718 -10.34703 -10.32474 -10.32164
 Alpha  occ. eigenvalues --  -10.31264 -10.30223 -10.30124 -10.28872 -10.28792
 Alpha  occ. eigenvalues --  -10.28619 -10.28408 -10.28302 -10.28292 -10.28123
 Alpha  occ. eigenvalues --  -10.26355  -1.23359  -1.16950  -1.15606  -1.15196
 Alpha  occ. eigenvalues --   -1.13901  -1.13809  -1.10905  -1.08782  -1.03050
 Alpha  occ. eigenvalues --   -1.00506  -0.96286  -0.94996  -0.93816  -0.89563
 Alpha  occ. eigenvalues --   -0.87787  -0.86343  -0.84401  -0.84266  -0.81699
 Alpha  occ. eigenvalues --   -0.78467  -0.77489  -0.74913  -0.74054  -0.73383
 Alpha  occ. eigenvalues --   -0.72578  -0.71704  -0.71097  -0.70659  -0.68950
 Alpha  occ. eigenvalues --   -0.67738  -0.66079  -0.64854  -0.64591  -0.63903
 Alpha  occ. eigenvalues --   -0.63470  -0.62759  -0.60472  -0.59883  -0.59649
 Alpha  occ. eigenvalues --   -0.58829  -0.58248  -0.57676  -0.56890  -0.56289
 Alpha  occ. eigenvalues --   -0.56094  -0.55754  -0.54997  -0.54778  -0.54274
 Alpha  occ. eigenvalues --   -0.53203  -0.52174  -0.51692  -0.51598  -0.51218
 Alpha  occ. eigenvalues --   -0.50654  -0.50328  -0.50200  -0.49766  -0.49604
 Alpha  occ. eigenvalues --   -0.49412  -0.48463  -0.47811  -0.47160  -0.47099
 Alpha  occ. eigenvalues --   -0.46958  -0.45817  -0.45572  -0.45534  -0.44996
 Alpha  occ. eigenvalues --   -0.44530  -0.44358  -0.43745  -0.43077  -0.42465
 Alpha  occ. eigenvalues --   -0.42126  -0.41156  -0.40857  -0.38568  -0.37228
 Alpha  occ. eigenvalues --   -0.35915  -0.35048  -0.34826  -0.34193  -0.32637
 Alpha  occ. eigenvalues --   -0.31556  -0.30741
 Alpha virt. eigenvalues --   -0.13154  -0.10980  -0.10142  -0.09272  -0.08089
 Alpha virt. eigenvalues --   -0.06130  -0.06116  -0.05347  -0.03831  -0.02489
 Alpha virt. eigenvalues --   -0.01987  -0.01285  -0.01156   0.00086   0.00574

 Mulliken charges:
               1
     1  N   -0.776965
     2  C   -0.067906
     3  C    0.626394
     4  O   -0.572123
     5  C   -0.275612
     6  C   -0.415640
     7  C    0.614077
     8  O   -0.447086
     9  O   -0.550935
    10  H    0.418924
    11  H    0.354813
    12  H    0.164282
    13  H    0.170639
    14  H    0.177486
    15  H    0.186422
    16  H    0.168733
    17  H    0.317944
    18  N   -0.600827
    19  C   -0.008015
    20  C    0.623288
    21  O   -0.491222
    22  C   -0.379618
    23  C    0.144319
    24  C   -0.177017
    25  C   -0.210078
    26  C   -0.176214
    27  C   -0.213172
    28  C    0.354311
    29  O   -0.654463
    30  H    0.371247
    31  H    0.154314
    32  H    0.180371
    33  H    0.175876
    34  H    0.165421
    35  H    0.152825
    36  H    0.150162
    37  H    0.144109
    38  H    0.416710
    39  N   -0.685049
    40  C   -0.021555
    41  C    0.622599
    42  O   -0.536864
    43  C   -0.304122
    44  C   -0.297314
    45  C   -0.315588
    46  C   -0.196945
    47  N   -0.752452
    48  O   -0.557726
    49  H    0.453902
    50  H    0.375703
    51  H    0.195178
    52  H    0.212129
    53  H    0.184959
    54  H    0.176396
    55  H    0.137162
    56  H    0.198558
    57  H    0.195159
    58  H    0.211756
    59  H    0.217858
    60  H    0.411934
    61  H    0.414298
    62  H    0.444250
 Sum of Mulliken charges =   1.00000

 Dipole moment (field-independent basis, Debye):
    X=            -24.6927    Y=           -409.3239    Z=            627.1871  Tot=            749.3460
 Quadrupole moment (field-independent basis, Debye-Ang):
   XX=            -39.5105   YY=          34795.7166   ZZ=          81747.8134
   XY=           2098.6522   XZ=          -3233.7955   YZ=         -53404.8452

 Normal termination of Gaussian 16 at Tue May 24 19:13:21 2022.
