 Gaussian 16, Revision C.01,
 Gaussian 16:  ES64L-G16RevC.01  3-Jul-2019

 ----------------------------------------------------------------------
 # B3LYP/6-31G* empiricaldispersion=gd3 guess=read geom=check nosymm in
 tegral(ultrafinegrid)
 ----------------------------------------------------------------------

 ------------------------------------------------------
 Candidate Structure: Conf:884 Charge calc in gas phase
 ------------------------------------------------------
 Structure from the checkpoint file:  "conf-884.chk"
 Charge =  1 Multiplicity = 1

                          Input orientation:
 ---------------------------------------------------------------------
 Center     Atomic      Atomic             Coordinates (Angstroms)
 Number     Number       Type             X           Y           Z
 ---------------------------------------------------------------------
      1          7           0        1.301406  -87.309532  130.848398
      2          6           0        1.099693  -87.884248  129.510945
      3          6           0       -0.386416  -87.717079  129.155209
      4          8           0       -0.839854  -86.623277  128.736208
      5          6           0        2.071375  -87.205457  128.536909
      6          6           0        2.394875  -88.012440  127.261380
      7          6           0        1.198773  -88.155265  126.360490
      8          8           0        0.456872  -89.130704  126.360846
      9          8           0        0.990755  -87.078084  125.592111
     10          1           0        0.150436  -87.233410  125.090090
     11          1           0        0.736981  -87.786196  131.549256
     12          1           0        1.342087  -88.952172  129.572218
     13          1           0        3.003970  -87.058529  129.088505
     14          1           0        1.691331  -86.211973  128.271557
     15          1           0        2.739319  -89.015479  127.526447
     16          1           0        3.190279  -87.501459  126.711152
     17          1           0        1.026970  -86.327984  130.854811
     18          7           0       -1.201363  -88.727941  129.505832
     19          6           0       -2.657674  -88.604700  129.719081
     20          6           0       -3.405794  -88.753837  128.371809
     21          8           0       -4.004408  -89.756537  128.033777
     22          6           0       -3.145029  -89.630770  130.752444
     23          6           0       -4.532399  -89.293077  131.257051
     24          6           0       -4.698306  -88.348621  132.281404
     25          6           0       -5.675756  -89.876630  130.700840
     26          6           0       -5.960619  -87.993581  132.742554
     27          6           0       -6.948243  -89.533647  131.155544
     28          6           0       -7.095811  -88.590124  132.178705
     29          8           0       -8.307047  -88.206451  132.670282
     30          1           0       -0.780573  -89.615095  129.754722
     31          1           0       -2.828761  -87.592911  130.102561
     32          1           0       -3.130341  -90.624386  130.292301
     33          1           0       -2.433924  -89.633275  131.588419
     34          1           0       -3.822325  -87.891044  132.738293
     35          1           0       -5.570136  -90.596306  129.895558
     36          1           0       -6.090736  -87.272737  133.543089
     37          1           0       -7.826798  -90.002280  130.716801
     38          1           0       -9.011058  -88.715591  132.238821
     39          7           0       -3.309105  -87.610639  127.612399
     40          6           0       -3.671694  -87.575318  126.198502
     41          6           0       -2.382762  -87.992527  125.487904
     42          8           0       -1.594355  -87.158276  125.011266
     43          6           0       -4.194437  -86.192201  125.725212
     44          6           0       -4.520971  -85.139924  126.804495
     45          6           0       -3.380060  -84.458964  127.600973
     46          6           0       -2.191417  -83.888697  126.815720
     47          7           0       -1.116261  -84.921874  126.549385
     48          8           0       -2.111060  -89.268886  125.573278
     49          1           0       -1.125293  -89.394543  125.518629
     50          1           0       -2.583741  -86.973923  127.927731
     51          1           0       -4.414452  -88.363855  126.058680
     52          1           0       -3.494109  -85.769380  124.996546
     53          1           0       -5.115450  -86.366369  125.160175
     54          1           0       -5.210354  -85.573926  127.536521
     55          1           0       -5.078536  -84.345260  126.293713
     56          1           0       -3.829939  -83.606942  128.123690
     57          1           0       -2.994298  -85.101117  128.399461
     58          1           0       -2.489311  -83.484379  125.844228
     59          1           0       -1.705145  -83.093010  127.384561
     60          1           0       -1.432261  -85.667263  125.888942
     61          1           0       -0.823856  -85.422447  127.417608
     62          1           0       -0.277865  -84.503544  126.134979
 ---------------------------------------------------------------------

 SCF Done:  E(RB3LYP) =  -1526.31975998     A.U. after    1 cycles

 Alpha  occ. eigenvalues --  -19.31920 -19.31299 -19.29422 -19.27034 -19.27000
 Alpha  occ. eigenvalues --  -19.24716 -19.23110 -14.57447 -14.50243 -14.47433
 Alpha  occ. eigenvalues --  -14.44058 -10.46390 -10.44729 -10.42951 -10.39952
 Alpha  occ. eigenvalues --  -10.38642 -10.36088 -10.35253 -10.35179 -10.32603
 Alpha  occ. eigenvalues --  -10.32188 -10.31478 -10.31273 -10.31213 -10.31012
 Alpha  occ. eigenvalues --  -10.29218 -10.26972 -10.26776 -10.26340 -10.26082
 Alpha  occ. eigenvalues --  -10.25760  -1.24658  -1.22667  -1.17861  -1.15806
 Alpha  occ. eigenvalues --   -1.14980  -1.13637  -1.12852  -1.12499  -1.06212
 Alpha  occ. eigenvalues --   -1.04695  -1.01306  -0.93426  -0.93131  -0.91387
 Alpha  occ. eigenvalues --   -0.90290  -0.88482  -0.84738  -0.83483  -0.82078
 Alpha  occ. eigenvalues --   -0.81313  -0.78928  -0.76817  -0.76040  -0.73613
 Alpha  occ. eigenvalues --   -0.73126  -0.71700  -0.71276  -0.70902  -0.69922
 Alpha  occ. eigenvalues --   -0.69427  -0.68759  -0.66413  -0.66208  -0.64556
 Alpha  occ. eigenvalues --   -0.64190  -0.63170  -0.62462  -0.61763  -0.61261
 Alpha  occ. eigenvalues --   -0.60903  -0.60794  -0.60367  -0.59287  -0.58864
 Alpha  occ. eigenvalues --   -0.58161  -0.57488  -0.56554  -0.55945  -0.55684
 Alpha  occ. eigenvalues --   -0.55363  -0.54370  -0.54203  -0.53536  -0.53415
 Alpha  occ. eigenvalues --   -0.52374  -0.51842  -0.51394  -0.51276  -0.50790
 Alpha  occ. eigenvalues --   -0.49983  -0.49694  -0.49131  -0.49087  -0.48324
 Alpha  occ. eigenvalues --   -0.47800  -0.47404  -0.47296  -0.46701  -0.46269
 Alpha  occ. eigenvalues --   -0.46058  -0.45563  -0.45085  -0.44820  -0.44061
 Alpha  occ. eigenvalues --   -0.43624  -0.43485  -0.42194  -0.41074  -0.40704
 Alpha  occ. eigenvalues --   -0.40281  -0.40118  -0.37391  -0.35749  -0.35578
 Alpha  occ. eigenvalues --   -0.32497  -0.29119
 Alpha virt. eigenvalues --   -0.14478  -0.12685  -0.11779  -0.09221  -0.08780
 Alpha virt. eigenvalues --   -0.07570  -0.06530  -0.04285  -0.03646  -0.02899
 Alpha virt. eigenvalues --   -0.02120  -0.01499  -0.01266  -0.00248   0.00380

 Mulliken charges:
               1
     1  N   -0.687667
     2  C   -0.059378
     3  C    0.626179
     4  O   -0.613777
     5  C   -0.287784
     6  C   -0.339511
     7  C    0.589436
     8  O   -0.505672
     9  O   -0.595979
    10  H    0.445317
    11  H    0.317213
    12  H    0.164259
    13  H    0.202886
    14  H    0.144554
    15  H    0.195054
    16  H    0.196992
    17  H    0.317375
    18  N   -0.587027
    19  C   -0.077442
    20  C    0.648872
    21  O   -0.478304
    22  C   -0.384962
    23  C    0.143273
    24  C   -0.189353
    25  C   -0.181630
    26  C   -0.157642
    27  C   -0.196095
    28  C    0.354995
    29  O   -0.632445
    30  H    0.360925
    31  H    0.185108
    32  H    0.185526
    33  H    0.151838
    34  H    0.119313
    35  H    0.163249
    36  H    0.152612
    37  H    0.135220
    38  H    0.415487
    39  N   -0.655279
    40  C   -0.021359
    41  C    0.611422
    42  O   -0.553134
    43  C   -0.332575
    44  C   -0.266717
    45  C   -0.317860
    46  C   -0.188001
    47  N   -0.815784
    48  O   -0.521981
    49  H    0.456543
    50  H    0.372292
    51  H    0.227219
    52  H    0.156234
    53  H    0.191027
    54  H    0.182704
    55  H    0.166425
    56  H    0.193338
    57  H    0.175108
    58  H    0.209242
    59  H    0.207248
    60  H    0.439193
    61  H    0.440013
    62  H    0.403666
 Sum of Mulliken charges =   1.00000

 Dipole moment (field-independent basis, Debye):
    X=             -7.1669    Y=           -413.4924    Z=            613.0584  Tot=            739.5052
 Quadrupole moment (field-independent basis, Debye-Ang):
   XX=           -126.6999   YY=          35438.3919   ZZ=          78086.1382
   XY=            616.2689   XZ=           -915.6036   YZ=         -52791.8957

 Normal termination of Gaussian 16 at Tue May 24 19:13:21 2022.
