 Gaussian 16, Revision C.01,
 Gaussian 16:  ES64L-G16RevC.01  3-Jul-2019

 ----------------------------------------------------------------------
 # B3LYP/6-31G* empiricaldispersion=gd3 guess=read geom=check nosymm in
 tegral(ultrafinegrid)
 ----------------------------------------------------------------------

 ------------------------------------------------------
 Candidate Structure: Conf:430 Charge calc in gas phase
 ------------------------------------------------------
 Structure from the checkpoint file:  "conf-430.chk"
 Charge =  1 Multiplicity = 1

                          Input orientation:
 ---------------------------------------------------------------------
 Center     Atomic      Atomic             Coordinates (Angstroms)
 Number     Number       Type             X           Y           Z
 ---------------------------------------------------------------------
      1          7           0       -3.443312  -88.534603  133.227387
      2          6           0       -3.975615  -88.895568  131.912635
      3          6           0       -2.937855  -88.557106  130.839400
      4          8           0       -2.899280  -89.181060  129.753588
      5          6           0       -4.539329  -90.327623  131.783504
      6          6           0       -5.369550  -90.595642  130.505506
      7          6           0       -4.636434  -91.171360  129.315634
      8          8           0       -4.911090  -90.938098  128.140686
      9          8           0       -3.716133  -92.076472  129.649646
     10          1           0       -3.322325  -92.425478  128.827794
     11          1           0       -2.796830  -89.247245  133.563553
     12          1           0       -4.798989  -88.192827  131.710462
     13          1           0       -5.192555  -90.477244  132.649762
     14          1           0       -3.730393  -91.060418  131.865622
     15          1           0       -5.880485  -89.691684  130.160975
     16          1           0       -6.151714  -91.332219  130.736954
     17          1           0       -4.189774  -88.458367  133.914031
     18          7           0       -2.159783  -87.501495  131.090510
     19          6           0       -1.309457  -86.858961  130.078417
     20          6           0       -2.218212  -86.472413  128.885973
     21          8           0       -3.045460  -85.575604  128.961448
     22          6           0       -0.635666  -85.609171  130.666032
     23          6           0        0.330726  -84.987436  129.681805
     24          6           0        1.669830  -85.390779  129.642422
     25          6           0       -0.102963  -84.028338  128.753215
     26          6           0        2.557692  -84.857484  128.709086
     27          6           0        0.770581  -83.488478  127.815853
     28          6           0        2.108387  -83.901778  127.790139
     29          8           0        2.916413  -83.336212  126.849509
     30          1           0       -2.268664  -87.080424  132.010417
     31          1           0       -0.543317  -87.574169  129.758080
     32          1           0       -1.425675  -84.899091  130.935281
     33          1           0       -0.114011  -85.899869  131.586249
     34          1           0        2.034149  -86.125229  130.358003
     35          1           0       -1.140342  -83.705878  128.765622
     36          1           0        3.598282  -85.175473  128.700358
     37          1           0        0.441257  -82.739550  127.102978
     38          1           0        3.822332  -83.666369  126.955385
     39          7           0       -2.078237  -87.258794  127.778187
     40          6           0       -3.073096  -87.254217  126.719142
     41          6           0       -4.511651  -87.292090  127.227858
     42          8           0       -5.436087  -86.862516  126.548889
     43          6           0       -2.863401  -88.537094  125.867821
     44          6           0       -3.874368  -88.774615  124.713251
     45          6           0       -4.723164  -90.072934  124.844961
     46          6           0       -6.228005  -89.915258  125.084354
     47          7           0       -6.571672  -89.395257  126.463855
     48          8           0       -4.787148  -88.023247  128.305490
     49          1           0       -3.984585  -88.432275  128.729324
     50          1           0       -1.551005  -88.112760  127.903682
     51          1           0       -2.984688  -86.357095  126.101255
     52          1           0       -1.844355  -88.482759  125.470189
     53          1           0       -2.882013  -89.389857  126.560148
     54          1           0       -3.311732  -88.836308  123.777978
     55          1           0       -4.529152  -87.904426  124.603063
     56          1           0       -4.652023  -90.642872  123.911708
     57          1           0       -4.317787  -90.728375  125.624792
     58          1           0       -6.683349  -89.224785  124.369267
     59          1           0       -6.721113  -90.886262  124.991981
     60          1           0       -7.568416  -89.517178  126.661193
     61          1           0       -6.356924  -88.373695  126.547000
     62          1           0       -6.027242  -89.894119  127.204152
 ---------------------------------------------------------------------

 SCF Done:  E(RB3LYP) =  -1526.32035849     A.U. after    1 cycles

 Alpha  occ. eigenvalues --  -19.31687 -19.29871 -19.26945 -19.25256 -19.24542
 Alpha  occ. eigenvalues --  -19.24267 -19.22145 -14.55508 -14.47897 -14.46747
 Alpha  occ. eigenvalues --  -14.43730 -10.45103 -10.43421 -10.40948 -10.39034
 Alpha  occ. eigenvalues --  -10.37057 -10.35037 -10.34322 -10.34105 -10.31840
 Alpha  occ. eigenvalues --  -10.31704 -10.31425 -10.31231 -10.30516 -10.30147
 Alpha  occ. eigenvalues --  -10.28341 -10.26419 -10.26334 -10.25820 -10.25765
 Alpha  occ. eigenvalues --  -10.25092  -1.23118  -1.21655  -1.16148  -1.14084
 Alpha  occ. eigenvalues --   -1.13812  -1.12747  -1.12388  -1.10501  -1.04574
 Alpha  occ. eigenvalues --   -1.03670  -1.00532  -0.92719  -0.92348  -0.90782
 Alpha  occ. eigenvalues --   -0.89136  -0.87549  -0.83176  -0.82674  -0.81593
 Alpha  occ. eigenvalues --   -0.80579  -0.76281  -0.75996  -0.74694  -0.72753
 Alpha  occ. eigenvalues --   -0.72475  -0.72129  -0.70033  -0.69613  -0.69134
 Alpha  occ. eigenvalues --   -0.68892  -0.67544  -0.65801  -0.64985  -0.64121
 Alpha  occ. eigenvalues --   -0.62515  -0.61716  -0.61049  -0.60808  -0.60556
 Alpha  occ. eigenvalues --   -0.59730  -0.59621  -0.58848  -0.58203  -0.57938
 Alpha  occ. eigenvalues --   -0.56738  -0.55720  -0.55270  -0.55001  -0.54561
 Alpha  occ. eigenvalues --   -0.54139  -0.53342  -0.53051  -0.52744  -0.51785
 Alpha  occ. eigenvalues --   -0.51239  -0.50999  -0.50526  -0.50100  -0.49878
 Alpha  occ. eigenvalues --   -0.49325  -0.48924  -0.48757  -0.48300  -0.47636
 Alpha  occ. eigenvalues --   -0.47147  -0.46683  -0.46621  -0.46168  -0.45796
 Alpha  occ. eigenvalues --   -0.45324  -0.44852  -0.44315  -0.44118  -0.42772
 Alpha  occ. eigenvalues --   -0.42608  -0.40812  -0.40457  -0.39948  -0.39633
 Alpha  occ. eigenvalues --   -0.38835  -0.38769  -0.36273  -0.35871  -0.34850
 Alpha  occ. eigenvalues --   -0.32009  -0.28658
 Alpha virt. eigenvalues --   -0.11430  -0.11185  -0.11122  -0.08610  -0.07272
 Alpha virt. eigenvalues --   -0.06870  -0.06068  -0.04249  -0.02392  -0.01922
 Alpha virt. eigenvalues --   -0.01597  -0.00771  -0.00065   0.00307   0.00787

 Mulliken charges:
               1
     1  N   -0.737925
     2  C   -0.083473
     3  C    0.633983
     4  O   -0.615206
     5  C   -0.274812
     6  C   -0.374440
     7  C    0.647475
     8  O   -0.529553
     9  O   -0.532748
    10  H    0.425485
    11  H    0.323476
    12  H    0.191483
    13  H    0.159280
    14  H    0.184228
    15  H    0.180609
    16  H    0.198625
    17  H    0.331956
    18  N   -0.579064
    19  C   -0.013992
    20  C    0.612375
    21  O   -0.509701
    22  C   -0.399816
    23  C    0.144781
    24  C   -0.191067
    25  C   -0.190996
    26  C   -0.191825
    27  C   -0.161317
    28  C    0.354975
    29  O   -0.632705
    30  H    0.379201
    31  H    0.167086
    32  H    0.186848
    33  H    0.162291
    34  H    0.128785
    35  H    0.159318
    36  H    0.132126
    37  H    0.154090
    38  H    0.414072
    39  N   -0.605147
    40  C   -0.024601
    41  C    0.640565
    42  O   -0.504318
    43  C   -0.339767
    44  C   -0.307695
    45  C   -0.300054
    46  C   -0.190076
    47  N   -0.800655
    48  O   -0.642221
    49  H    0.494193
    50  H    0.348444
    51  H    0.210918
    52  H    0.188690
    53  H    0.159150
    54  H    0.178734
    55  H    0.189617
    56  H    0.186429
    57  H    0.180436
    58  H    0.209482
    59  H    0.199392
    60  H    0.394220
    61  H    0.433017
    62  H    0.447339
 Sum of Mulliken charges =   1.00000

 Dipole moment (field-independent basis, Debye):
    X=            -18.9600    Y=           -432.1594    Z=            616.9444  Tot=            753.4863
 Quadrupole moment (field-independent basis, Debye-Ang):
   XX=            -40.0468   YY=          38699.2842   ZZ=          79121.3325
   XY=           1727.2557   XZ=          -2423.8422   YZ=         -55502.1743

 Normal termination of Gaussian 16 at Tue May 24 19:13:21 2022.
