 Gaussian 16, Revision C.01,
 Gaussian 16:  ES64L-G16RevC.01  3-Jul-2019

 ----------------------------------------------------------------------
 # B3LYP/6-31G* empiricaldispersion=gd3 guess=read geom=check nosymm in
 tegral(ultrafinegrid)
 ----------------------------------------------------------------------

 ------------------------------------------------------
 Candidate Structure: Conf:472 Charge calc in gas phase
 ------------------------------------------------------
 Structure from the checkpoint file:  "conf-472.chk"
 Charge =  1 Multiplicity = 1

                          Input orientation:
 ---------------------------------------------------------------------
 Center     Atomic      Atomic             Coordinates (Angstroms)
 Number     Number       Type             X           Y           Z
 ---------------------------------------------------------------------
      1          7           0       -2.108523  -13.272068  -10.765942
      2          6           0       -1.976087  -13.511883   -9.272520
      3          6           0       -0.439721  -13.703680   -9.100729
      4          8           0        0.276157  -13.505654  -10.091925
      5          6           0       -2.826043  -14.694997   -8.817002
      6          1           0       -2.475286  -14.094191  -11.256991
      7          1           0       -2.279839  -12.585017   -8.776879
      8          1           0       -2.500902  -15.622405   -9.301239
      9          1           0       -3.886651  -14.526279   -9.027356
     10          1           0       -2.721039  -14.839609   -7.738666
     11          1           0       -1.092985  -13.137874  -11.059944
     12          1           0       -2.686011  -12.463565  -11.010376
     13          7           0       -0.007272  -14.069091   -7.897870
     14          6           0        1.403377  -14.455325   -7.645323
     15          6           0        1.272407  -15.573528   -6.593785
     16          8           0        1.141442  -16.736126   -6.937952
     17          6           0        2.275476  -13.248202   -7.299997
     18          1           0       -0.665777  -14.235704   -7.140750
     19          1           0        1.770166  -14.933755   -8.555359
     20          1           0        3.291741  -13.574642   -7.059363
     21          1           0        2.324228  -12.574284   -8.159804
     22          1           0        1.880857  -12.677087   -6.451861
     23          7           0        1.156891  -15.147260   -5.300637
     24          6           0        0.547414  -15.988611   -4.286732
     25          6           0       -0.978270  -15.850332   -4.256169
     26          8           0       -1.678802  -16.376359   -3.464033
     27          6           0        1.126037  -15.723866   -2.892114
     28          8           0       -1.500055  -15.034919   -5.237976
     29          1           0       -2.460512  -15.032318   -5.057201
     30          1           0        1.239063  -14.161300   -5.093316
     31          1           0        0.743310  -17.025617   -4.577399
     32          1           0        0.624898  -16.357301   -2.157412
     33          1           0        2.196275  -15.944770   -2.889437
     34          1           0        0.981988  -14.678105   -2.595632
 ---------------------------------------------------------------------

 SCF Done:  E(RB3LYP) =  -818.795209297     A.U. after    1 cycles

 Alpha  occ. eigenvalues --  -19.32117 -19.29274 -19.25571 -19.23000 -14.62439
 Alpha  occ. eigenvalues --  -14.52181 -14.47808 -10.46024 -10.43774 -10.43265
 Alpha  occ. eigenvalues --  -10.40437 -10.36345 -10.36176 -10.35050 -10.30342
 Alpha  occ. eigenvalues --  -10.28487  -1.22794  -1.21769  -1.16299  -1.15281
 Alpha  occ. eigenvalues --   -1.14070  -1.08579  -1.04437  -0.95825  -0.90755
 Alpha  occ. eigenvalues --   -0.87350  -0.83945  -0.79244  -0.78000  -0.77015
 Alpha  occ. eigenvalues --   -0.74958  -0.73192  -0.72076  -0.70934  -0.68265
 Alpha  occ. eigenvalues --   -0.65822  -0.63894  -0.62362  -0.60625  -0.60463
 Alpha  occ. eigenvalues --   -0.58589  -0.58370  -0.57484  -0.56611  -0.55872
 Alpha  occ. eigenvalues --   -0.54801  -0.54656  -0.53448  -0.52977  -0.51959
 Alpha  occ. eigenvalues --   -0.50661  -0.50261  -0.49503  -0.48405  -0.47649
 Alpha  occ. eigenvalues --   -0.46883  -0.43910  -0.43781  -0.41931  -0.40843
 Alpha  occ. eigenvalues --   -0.36758  -0.35922
 Alpha virt. eigenvalues --   -0.15148  -0.12874  -0.10219  -0.09907  -0.08256
 Alpha virt. eigenvalues --   -0.07335  -0.06151  -0.03761  -0.02942  -0.01946
 Alpha virt. eigenvalues --   -0.00782   0.00171   0.00820   0.01783   0.02342

 Mulliken charges:
               1
     1  N   -0.753020
     2  C   -0.113954
     3  C    0.658225
     4  O   -0.529273
     5  C   -0.484470
     6  H    0.419622
     7  H    0.232461
     8  H    0.206548
     9  H    0.200427
    10  H    0.199919
    11  H    0.440456
    12  H    0.421000
    13  N   -0.623674
    14  C   -0.045636
    15  C    0.564633
    16  O   -0.477350
    17  C   -0.465146
    18  H    0.387308
    19  H    0.217728
    20  H    0.196850
    21  H    0.192669
    22  H    0.149381
    23  N   -0.589829
    24  C   -0.071447
    25  C    0.611098
    26  O   -0.408023
    27  C   -0.463474
    28  O   -0.616777
    29  H    0.419521
    30  H    0.337673
    31  H    0.237409
    32  H    0.205746
    33  H    0.187366
    34  H    0.156031
 Sum of Mulliken charges =   1.00000

 Dipole moment (field-independent basis, Debye):
    X=             -8.5118    Y=            -63.2045    Z=            -42.2067  Tot=             76.4766
 Quadrupole moment (field-independent basis, Debye-Ang):
   XX=            -60.9618   YY=            731.6243   ZZ=            312.1662
   XY=            113.7717   XZ=             98.9118   YZ=            554.0890

 Normal termination of Gaussian 16 at Sat Jun  4 16:59:04 2022.
