 Gaussian 16, Revision C.01,
 Gaussian 16:  ES64L-G16RevC.01  3-Jul-2019

 ----------------------------------------------------------------------
 # B3LYP/6-31G* empiricaldispersion=gd3 guess=read geom=check nosymm in
 tegral(ultrafinegrid)
 ----------------------------------------------------------------------

 ------------------------------------------------------
 Candidate Structure: Conf:883 Charge calc in gas phase
 ------------------------------------------------------
 Structure from the checkpoint file:  "conf-883.chk"
 Charge =  1 Multiplicity = 1

                          Input orientation:
 ---------------------------------------------------------------------
 Center     Atomic      Atomic             Coordinates (Angstroms)
 Number     Number       Type             X           Y           Z
 ---------------------------------------------------------------------
      1          7           0        1.265958  -12.581571   -9.105145
      2          6           0        1.715296  -12.593231   -7.658578
      3          6           0        1.636289  -14.101504   -7.307599
      4          8           0        1.720264  -14.908806   -8.232590
      5          6           0        0.865919  -11.638517   -6.827817
      6          1           0        1.683173  -13.428036   -9.536037
      7          1           0        2.767534  -12.288624   -7.660629
      8          1           0        1.238910  -11.595321   -5.800345
      9          1           0       -0.180664  -11.955839   -6.818634
     10          1           0        0.923041  -10.618814   -7.222274
     11          1           0        1.528579  -11.729082   -9.605768
     12          1           0        0.236294  -12.736236   -9.142972
     13          7           0        1.432212  -14.456035   -6.026378
     14          6           0        1.141801  -15.862987   -5.691704
     15          6           0       -0.123017  -16.347026   -6.439641
     16          8           0       -0.217881  -17.492018   -6.836571
     17          6           0        0.995897  -16.028368   -4.178848
     18          1           0        1.415569  -13.763050   -5.290165
     19          1           0        1.953015  -16.487566   -6.072684
     20          1           0        0.773711  -17.074137   -3.952636
     21          1           0        1.923082  -15.756422   -3.663798
     22          1           0        0.174768  -15.415971   -3.788165
     23          7           0       -1.119635  -15.407302   -6.563316
     24          6           0       -2.192637  -15.560312   -7.522411
     25          6           0       -2.016056  -14.540262   -8.642995
     26          8           0       -1.258663  -13.574013   -8.593086
     27          6           0       -3.587514  -15.417631   -6.884922
     28          8           0       -2.815163  -14.786078   -9.675500
     29          1           0       -2.709418  -14.083830  -10.345773
     30          1           0       -0.907727  -14.458848   -6.288170
     31          1           0       -2.092823  -16.559713   -7.958172
     32          1           0       -3.698577  -16.179428   -6.109750
     33          1           0       -3.708391  -14.431255   -6.423327
     34          1           0       -4.372323  -15.554153   -7.633406
 ---------------------------------------------------------------------

 SCF Done:  E(RB3LYP) =  -818.817793512     A.U. after    2 cycles

 Alpha  occ. eigenvalues --  -19.34352 -19.29922 -19.27925 -19.22759 -14.60862
 Alpha  occ. eigenvalues --  -14.51985 -14.47665 -10.47278 -10.45258 -10.42696
 Alpha  occ. eigenvalues --  -10.40195 -10.36260 -10.36122 -10.35433 -10.30441
 Alpha  occ. eigenvalues --  -10.29653  -1.25725  -1.20715  -1.16781  -1.15332
 Alpha  occ. eigenvalues --   -1.14732  -1.08200  -1.04449  -0.94986  -0.90811
 Alpha  occ. eigenvalues --   -0.88577  -0.83069  -0.79878  -0.78287  -0.76195
 Alpha  occ. eigenvalues --   -0.75168  -0.74111  -0.72711  -0.70463  -0.67325
 Alpha  occ. eigenvalues --   -0.66219  -0.64422  -0.63637  -0.61931  -0.60531
 Alpha  occ. eigenvalues --   -0.59678  -0.59574  -0.57240  -0.56191  -0.55820
 Alpha  occ. eigenvalues --   -0.55312  -0.54717  -0.53711  -0.52988  -0.52161
 Alpha  occ. eigenvalues --   -0.51296  -0.50628  -0.50065  -0.48619  -0.48369
 Alpha  occ. eigenvalues --   -0.47102  -0.46890  -0.43219  -0.42103  -0.41914
 Alpha  occ. eigenvalues --   -0.37385  -0.36085
 Alpha virt. eigenvalues --   -0.14860  -0.13888  -0.10689  -0.09089  -0.07478
 Alpha virt. eigenvalues --   -0.05897  -0.05367  -0.04039  -0.02964  -0.01382
 Alpha virt. eigenvalues --   -0.00127   0.00347   0.01304   0.01821   0.02286

 Mulliken charges:
               1
     1  N   -0.751124
     2  C   -0.125236
     3  C    0.669819
     4  O   -0.513257
     5  C   -0.490884
     6  H    0.426555
     7  H    0.235870
     8  H    0.196976
     9  H    0.203793
    10  H    0.196831
    11  H    0.409393
    12  H    0.440474
    13  N   -0.639833
    14  C   -0.031494
    15  C    0.610261
    16  O   -0.476189
    17  C   -0.493299
    18  H    0.352210
    19  H    0.219773
    20  H    0.215773
    21  H    0.182556
    22  H    0.161728
    23  N   -0.584243
    24  C   -0.066952
    25  C    0.621299
    26  O   -0.538773
    27  C   -0.451081
    28  O   -0.516444
    29  H    0.429716
    30  H    0.321399
    31  H    0.236828
    32  H    0.199376
    33  H    0.156585
    34  H    0.191597
 Sum of Mulliken charges =   1.00000

 Dipole moment (field-independent basis, Debye):
    X=              1.9135    Y=            -59.6558    Z=            -37.2122  Tot=             70.3365
 Quadrupole moment (field-independent basis, Debye-Ang):
   XX=            -70.5343   YY=            640.0192   ZZ=            224.5623
   XY=            -15.1880   XZ=             -9.4232   YZ=            451.8176

 Normal termination of Gaussian 16 at Sat Jun  4 16:59:07 2022.
