 Gaussian 16, Revision C.01,
 Gaussian 16:  ES64L-G16RevC.01  3-Jul-2019

 ----------------------------------------------------------------------
 # B3LYP/6-31G* empiricaldispersion=gd3 guess=read geom=check nosymm in
 tegral(ultrafinegrid)
 ----------------------------------------------------------------------

 ------------------------------------------------------
 Candidate Structure: Conf:684 Charge calc in gas phase
 ------------------------------------------------------
 Structure from the checkpoint file:  "conf-684.chk"
 Charge =  1 Multiplicity = 1

                          Input orientation:
 ---------------------------------------------------------------------
 Center     Atomic      Atomic             Coordinates (Angstroms)
 Number     Number       Type             X           Y           Z
 ---------------------------------------------------------------------
      1          7           0        0.286541  -11.884426   -8.034838
      2          6           0        1.048836  -12.799289   -8.978680
      3          6           0        0.093894  -14.019482   -9.034618
      4          8           0       -1.111228  -13.784011   -8.952716
      5          6           0        2.470774  -13.021411   -8.482887
      6          1           0       -0.712025  -11.988028   -8.304470
      7          1           0        1.039702  -12.304013   -9.954952
      8          1           0        3.022525  -13.644740   -9.193082
      9          1           0        2.478493  -13.503105   -7.500158
     10          1           0        3.015278  -12.074268   -8.412076
     11          1           0        0.588354  -10.907339   -8.081842
     12          1           0        0.366171  -12.239535   -7.058224
     13          7           0        0.608956  -15.260557   -9.059660
     14          6           0       -0.255092  -16.390656   -8.674236
     15          6           0       -0.865641  -16.134515   -7.275012
     16          8           0       -1.977742  -16.530930   -6.987743
     17          6           0        0.529328  -17.702290   -8.711874
     18          1           0        1.605450  -15.409506   -9.143886
     19          1           0       -1.107277  -16.433361   -9.355842
     20          1           0       -0.127069  -18.522896   -8.412086
     21          1           0        0.896213  -17.908295   -9.722284
     22          1           0        1.382138  -17.681862   -8.021846
     23          7           0       -0.069063  -15.419495   -6.404895
     24          6           0       -0.519588  -15.169266   -5.044977
     25          6           0        0.111922  -13.914003   -4.460894
     26          8           0        0.123081  -13.626684   -3.296896
     27          6           0       -0.311275  -16.361033   -4.097322
     28          8           0        0.728025  -13.062858   -5.389448
     29          1           0        1.119843  -12.366809   -4.822833
     30          1           0        0.927406  -15.400198   -6.574953
     31          1           0       -1.596994  -14.970796   -5.115914
     32          1           0       -0.865664  -17.216019   -4.490601
     33          1           0        0.750272  -16.621212   -4.025820
     34          1           0       -0.677962  -16.122305   -3.096715
 ---------------------------------------------------------------------

 SCF Done:  E(RB3LYP) =  -818.799012341     A.U. after    2 cycles

 Alpha  occ. eigenvalues --  -19.35427 -19.28496 -19.28362 -19.24002 -14.61935
 Alpha  occ. eigenvalues --  -14.52542 -14.49025 -10.46297 -10.45821 -10.43478
 Alpha  occ. eigenvalues --  -10.41250 -10.36952 -10.36942 -10.36417 -10.31297
 Alpha  occ. eigenvalues --  -10.29011  -1.24897  -1.21433  -1.16440  -1.16179
 Alpha  occ. eigenvalues --   -1.15717  -1.08892  -1.05372  -0.95820  -0.91242
 Alpha  occ. eigenvalues --   -0.88816  -0.83999  -0.80095  -0.78738  -0.76729
 Alpha  occ. eigenvalues --   -0.75825  -0.73898  -0.72742  -0.71399  -0.68405
 Alpha  occ. eigenvalues --   -0.66657  -0.65207  -0.62942  -0.62793  -0.60884
 Alpha  occ. eigenvalues --   -0.60131  -0.59777  -0.57198  -0.56655  -0.56431
 Alpha  occ. eigenvalues --   -0.55915  -0.55560  -0.55074  -0.53742  -0.53071
 Alpha  occ. eigenvalues --   -0.52057  -0.51398  -0.49874  -0.49216  -0.48549
 Alpha  occ. eigenvalues --   -0.47423  -0.46550  -0.42995  -0.42407  -0.41965
 Alpha  occ. eigenvalues --   -0.38573  -0.36806
 Alpha virt. eigenvalues --   -0.15949  -0.13580  -0.11858  -0.10038  -0.08499
 Alpha virt. eigenvalues --   -0.07444  -0.05980  -0.04765  -0.03417  -0.01574
 Alpha virt. eigenvalues --   -0.01027  -0.00348   0.00458   0.01291   0.01476

 Mulliken charges:
               1
     1  N   -0.765191
     2  C   -0.119327
     3  C    0.665155
     4  O   -0.505770
     5  C   -0.495972
     6  H    0.432456
     7  H    0.242122
     8  H    0.206789
     9  H    0.188396
    10  H    0.200059
    11  H    0.411164
    12  H    0.439183
    13  N   -0.628068
    14  C   -0.036213
    15  C    0.617816
    16  O   -0.472665
    17  C   -0.493675
    18  H    0.351141
    19  H    0.227034
    20  H    0.217852
    21  H    0.190399
    22  H    0.152561
    23  N   -0.625172
    24  C   -0.057608
    25  C    0.601781
    26  O   -0.400366
    27  C   -0.448952
    28  O   -0.636201
    29  H    0.428581
    30  H    0.322803
    31  H    0.236284
    32  H    0.197111
    33  H    0.155059
    34  H    0.201432
 Sum of Mulliken charges =   1.00000

 Dipole moment (field-independent basis, Debye):
    X=              7.8480    Y=            -62.9474    Z=            -38.5240  Tot=             74.2163
 Quadrupole moment (field-independent basis, Debye-Ang):
   XX=            -88.5099   YY=            761.2505   ZZ=            222.4304
   XY=           -111.7220   XZ=            -64.5703   YZ=            505.4733

 Normal termination of Gaussian 16 at Sat Jun  4 16:59:07 2022.
