 Gaussian 16, Revision C.01,
 Gaussian 16:  ES64L-G16RevC.01  3-Jul-2019

 ----------------------------------------------------------------------
 # B3LYP/6-31G* empiricaldispersion=gd3 guess=read geom=check nosymm in
 tegral(ultrafinegrid)
 ----------------------------------------------------------------------

 ------------------------------------------------------
 Candidate Structure: Conf:474 Charge calc in gas phase
 ------------------------------------------------------
 Structure from the checkpoint file:  "conf-474.chk"
 Charge =  1 Multiplicity = 1

                          Input orientation:
 ---------------------------------------------------------------------
 Center     Atomic      Atomic             Coordinates (Angstroms)
 Number     Number       Type             X           Y           Z
 ---------------------------------------------------------------------
      1          7           0       -2.084950  -13.760381   -8.960431
      2          6           0       -1.280036  -12.629132   -8.342891
      3          6           0        0.137896  -13.256509   -8.327469
      4          8           0        0.415365  -14.021431   -9.250696
      5          6           0       -1.888809  -12.195786   -7.016763
      6          1           0       -2.216870  -14.522092   -8.261388
      7          1           0       -1.292921  -11.813526   -9.073040
      8          1           0       -1.888932  -13.016112   -6.292233
      9          1           0       -2.918256  -11.848325   -7.151254
     10          1           0       -1.327412  -11.351965   -6.604291
     11          1           0       -1.476260  -14.149708   -9.707782
     12          1           0       -2.990442  -13.460666   -9.332265
     13          7           0        0.947249  -13.033318   -7.278004
     14          6           0        2.076760  -13.952331   -7.050505
     15          6           0        1.563995  -15.411115   -6.978666
     16          8           0        2.238263  -16.338909   -7.379956
     17          6           0        2.837729  -13.563138   -5.782994
     18          1           0        0.687418  -12.383174   -6.548566
     19          1           0        2.737767  -13.922822   -7.919309
     20          1           0        3.661969  -14.263818   -5.628754
     21          1           0        3.256238  -12.555838   -5.873312
     22          1           0        2.191293  -13.600948   -4.897278
     23          7           0        0.299730  -15.567936   -6.449451
     24          6           0       -0.257837  -16.900506   -6.280786
     25          6           0       -1.779285  -16.885373   -6.303031
     26          8           0       -2.482024  -17.783549   -5.932904
     27          6           0        0.249329  -17.626316   -5.024647
     28          8           0       -2.362045  -15.706134   -6.788851
     29          1           0       -3.319867  -15.866449   -6.662569
     30          1           0       -0.065576  -14.833629   -5.858174
     31          1           0        0.060002  -17.474216   -7.161125
     32          1           0       -0.190667  -18.623462   -4.955570
     33          1           0        1.335895  -17.714931   -5.092021
     34          1           0       -0.011706  -17.067450   -4.119531
 ---------------------------------------------------------------------

 SCF Done:  E(RB3LYP) =  -818.799015651     A.U. after    3 cycles

 Alpha  occ. eigenvalues --  -19.35431 -19.28502 -19.28363 -19.24005 -14.61933
 Alpha  occ. eigenvalues --  -14.52543 -14.49032 -10.46300 -10.45826 -10.43481
 Alpha  occ. eigenvalues --  -10.41255 -10.36956 -10.36943 -10.36420 -10.31293
 Alpha  occ. eigenvalues --  -10.29020  -1.24900  -1.21436  -1.16441  -1.16183
 Alpha  occ. eigenvalues --   -1.15718  -1.08896  -1.05376  -0.95821  -0.91242
 Alpha  occ. eigenvalues --   -0.88820  -0.84000  -0.80099  -0.78737  -0.76728
 Alpha  occ. eigenvalues --   -0.75827  -0.73901  -0.72749  -0.71401  -0.68408
 Alpha  occ. eigenvalues --   -0.66659  -0.65207  -0.62945  -0.62796  -0.60889
 Alpha  occ. eigenvalues --   -0.60133  -0.59782  -0.57202  -0.56659  -0.56437
 Alpha  occ. eigenvalues --   -0.55916  -0.55562  -0.55076  -0.53741  -0.53073
 Alpha  occ. eigenvalues --   -0.52061  -0.51395  -0.49877  -0.49222  -0.48554
 Alpha  occ. eigenvalues --   -0.47426  -0.46550  -0.43002  -0.42412  -0.41968
 Alpha  occ. eigenvalues --   -0.38578  -0.36810
 Alpha virt. eigenvalues --   -0.15953  -0.13579  -0.11859  -0.10043  -0.08504
 Alpha virt. eigenvalues --   -0.07446  -0.05984  -0.04765  -0.03418  -0.01577
 Alpha virt. eigenvalues --   -0.01025  -0.00349   0.00456   0.01291   0.01473

 Mulliken charges:
               1
     1  N   -0.765247
     2  C   -0.119297
     3  C    0.664999
     4  O   -0.505707
     5  C   -0.495986
     6  H    0.439251
     7  H    0.242106
     8  H    0.188385
     9  H    0.200070
    10  H    0.206779
    11  H    0.432468
    12  H    0.411144
    13  N   -0.628113
    14  C   -0.036213
    15  C    0.617880
    16  O   -0.472718
    17  C   -0.493611
    18  H    0.351163
    19  H    0.227084
    20  H    0.217893
    21  H    0.190394
    22  H    0.152591
    23  N   -0.625341
    24  C   -0.057722
    25  C    0.601933
    26  O   -0.400372
    27  C   -0.449016
    28  O   -0.636284
    29  H    0.428615
    30  H    0.322820
    31  H    0.236411
    32  H    0.201513
    33  H    0.197130
    34  H    0.154996
 Sum of Mulliken charges =   1.00000

 Dipole moment (field-independent basis, Debye):
    X=             -7.9541    Y=            -62.7728    Z=            -35.2316  Tot=             72.4220
 Quadrupole moment (field-independent basis, Debye-Ang):
   XX=            -66.8904   YY=            729.2557   ZZ=            177.9942
   XY=            110.9493   XZ=             76.7081   YZ=            456.5697

 Normal termination of Gaussian 16 at Sat Jun  4 16:59:11 2022.
