 Gaussian 16, Revision C.01,
 Gaussian 16:  ES64L-G16RevC.01  3-Jul-2019

 ----------------------------------------------------------------------
 # B3LYP/6-31G* empiricaldispersion=gd3 guess=read geom=check nosymm in
 tegral(ultrafinegrid)
 ----------------------------------------------------------------------

 ------------------------------------------------------
 Candidate Structure: Conf:961 Charge calc in gas phase
 ------------------------------------------------------
 Structure from the checkpoint file:  "conf-961.chk"
 Charge =  1 Multiplicity = 1

                          Input orientation:
 ---------------------------------------------------------------------
 Center     Atomic      Atomic             Coordinates (Angstroms)
 Number     Number       Type             X           Y           Z
 ---------------------------------------------------------------------
      1          7           0       -0.646161  -16.711276   -8.644715
      2          6           0       -1.098840  -17.578822   -7.461056
      3          6           0       -1.678175  -16.563356   -6.448511
      4          8           0       -2.879444  -16.401222   -6.388974
      5          6           0        0.035699  -18.485519   -7.005162
      6          1           0        0.318233  -16.355921   -8.523042
      7          1           0       -1.951405  -18.156113   -7.821334
      8          1           0       -0.301125  -19.085252   -6.155014
      9          1           0        0.920630  -17.919831   -6.690639
     10          1           0        0.336446  -19.174094   -7.801854
     11          1           0       -1.205905  -15.830272   -8.691683
     12          1           0       -0.701543  -17.218789   -9.533001
     13          7           0       -0.756189  -15.792847   -5.776282
     14          6           0       -1.020950  -14.346133   -5.640559
     15          6           0       -0.498890  -13.794954   -6.986670
     16          8           0       -1.054830  -14.122251   -8.045539
     17          6           0       -0.420140  -13.776094   -4.361185
     18          1           0        0.223565  -16.016441   -5.917428
     19          1           0       -2.106162  -14.229630   -5.641174
     20          1           0       -0.577386  -12.693740   -4.306322
     21          1           0       -0.905901  -14.233634   -3.495997
     22          1           0        0.654402  -13.983477   -4.279912
     23          7           0        0.668814  -13.118905   -6.979106
     24          6           0        1.438067  -12.884839   -8.197604
     25          6           0        2.456204  -14.013158   -8.413924
     26          8           0        3.582160  -13.874366   -8.802546
     27          6           0        2.129440  -11.523013   -8.184900
     28          8           0        1.959035  -15.283415   -8.125841
     29          1           0        2.724917  -15.873698   -8.276733
     30          1           0        1.084277  -12.840518   -6.099612
     31          1           0        0.723889  -12.944123   -9.026445
     32          1           0        2.701840  -11.383406   -9.103962
     33          1           0        1.380184  -10.731507   -8.105821
     34          1           0        2.827768  -11.441688   -7.345033
 ---------------------------------------------------------------------

 SCF Done:  E(RB3LYP) =  -818.799646719     A.U. after    2 cycles

 Alpha  occ. eigenvalues --  -19.35834 -19.29363 -19.27054 -19.26859 -14.60798
 Alpha  occ. eigenvalues --  -14.51843 -14.50881 -10.47050 -10.44184 -10.44172
 Alpha  occ. eigenvalues --  -10.41761 -10.38543 -10.37719 -10.35188 -10.31690
 Alpha  occ. eigenvalues --  -10.30707  -1.25593  -1.19757  -1.18444  -1.16965
 Alpha  occ. eigenvalues --   -1.15184  -1.08087  -1.07380  -0.94683  -0.92592
 Alpha  occ. eigenvalues --   -0.89250  -0.82680  -0.81306  -0.79638  -0.75678
 Alpha  occ. eigenvalues --   -0.74673  -0.74022  -0.73218  -0.72043  -0.68492
 Alpha  occ. eigenvalues --   -0.66737  -0.64971  -0.63620  -0.62827  -0.61607
 Alpha  occ. eigenvalues --   -0.60853  -0.58750  -0.58115  -0.57182  -0.56286
 Alpha  occ. eigenvalues --   -0.55913  -0.55177  -0.54330  -0.54016  -0.53668
 Alpha  occ. eigenvalues --   -0.52367  -0.52131  -0.50924  -0.50762  -0.49869
 Alpha  occ. eigenvalues --   -0.49195  -0.47611  -0.44160  -0.42590  -0.40391
 Alpha  occ. eigenvalues --   -0.40287  -0.38900
 Alpha virt. eigenvalues --   -0.16737  -0.14326  -0.12122  -0.10895  -0.08504
 Alpha virt. eigenvalues --   -0.05710  -0.05051  -0.03447  -0.01545  -0.01202
 Alpha virt. eigenvalues --   -0.00806  -0.00538   0.00347   0.01743   0.01906

 Mulliken charges:
               1
     1  N   -0.786543
     2  C   -0.103138
     3  C    0.590495
     4  O   -0.434678
     5  C   -0.478679
     6  H    0.420841
     7  H    0.237709
     8  H    0.230838
     9  H    0.161309
    10  H    0.195292
    11  H    0.459235
    12  H    0.412154
    13  N   -0.576968
    14  C   -0.061414
    15  C    0.613721
    16  O   -0.565032
    17  C   -0.487351
    18  H    0.328585
    19  H    0.236130
    20  H    0.188235
    21  H    0.211396
    22  H    0.151020
    23  N   -0.584990
    24  C   -0.076134
    25  C    0.612848
    26  O   -0.394168
    27  C   -0.459719
    28  O   -0.630002
    29  H    0.431419
    30  H    0.361397
    31  H    0.228505
    32  H    0.206422
    33  H    0.188504
    34  H    0.172760
 Sum of Mulliken charges =   1.00000

 Dipole moment (field-independent basis, Debye):
    X=              3.0080    Y=            -75.9526    Z=            -36.2802  Tot=             84.2265
 Quadrupole moment (field-independent basis, Debye-Ang):
   XX=            -99.5991   YY=           1140.5605   ZZ=            196.9545
   XY=            -42.6493   XZ=            -17.7041   YZ=            585.4431

 Normal termination of Gaussian 16 at Sat Jun  4 16:59:07 2022.
