 Gaussian 16, Revision C.01,
 Gaussian 16:  ES64L-G16RevC.01  3-Jul-2019

 ----------------------------------------------------------------------
 # B3LYP/6-31G* empiricaldispersion=gd3 guess=read geom=check nosymm in
 tegral(ultrafinegrid)
 ----------------------------------------------------------------------

 ------------------------------------------------------
 Candidate Structure: Conf:749 Charge calc in gas phase
 ------------------------------------------------------
 Structure from the checkpoint file:  "conf-749.chk"
 Charge =  1 Multiplicity = 1

                          Input orientation:
 ---------------------------------------------------------------------
 Center     Atomic      Atomic             Coordinates (Angstroms)
 Number     Number       Type             X           Y           Z
 ---------------------------------------------------------------------
      1          7           0        2.484188  -13.414892   -8.684974
      2          6           0        1.282861  -13.786594   -9.529490
      3          6           0        0.107709  -13.527967   -8.551463
      4          8           0        0.291376  -12.725426   -7.636774
      5          6           0        1.433709  -15.199689  -10.080385
      6          1           0        2.194265  -12.584941   -8.134055
      7          1           0        1.234654  -13.048840  -10.337821
      8          1           0        1.467991  -15.932481   -9.269232
      9          1           0        2.345796  -15.291565  -10.678973
     10          1           0        0.599576  -15.437966  -10.746815
     11          1           0        3.327379  -13.233060   -9.234781
     12          1           0        2.650389  -14.164582   -7.980759
     13          7           0       -1.032657  -14.221986   -8.715026
     14          6           0       -2.085633  -14.157036   -7.684023
     15          6           0       -1.533321  -14.624116   -6.316454
     16          8           0       -1.917073  -14.119725   -5.279196
     17          6           0       -3.297402  -14.985467   -8.111453
     18          1           0       -1.159257  -14.837120   -9.507558
     19          1           0       -2.364989  -13.111548   -7.534915
     20          1           0       -4.061527  -14.930752   -7.332166
     21          1           0       -3.728234  -14.598739   -9.040827
     22          1           0       -3.030786  -16.039767   -8.250292
     23          7           0       -0.636539  -15.665057   -6.377390
     24          6           0        0.235504  -15.982101   -5.266666
     25          6           0        1.670153  -15.613625   -5.631685
     26          8           0        2.055828  -15.356700   -6.769677
     27          6           0        0.153738  -17.461952   -4.847355
     28          8           0        2.479741  -15.645989   -4.578778
     29          1           0        3.394415  -15.456058   -4.863203
     30          1           0       -0.308545  -15.949701   -7.289290
     31          1           0       -0.071461  -15.349309   -4.427595
     32          1           0       -0.875879  -17.689036   -4.561208
     33          1           0        0.437905  -18.120277   -5.675884
     34          1           0        0.811784  -17.661817   -3.997749
 ---------------------------------------------------------------------

 SCF Done:  E(RB3LYP) =  -818.817793182     A.U. after    1 cycles

 Alpha  occ. eigenvalues --  -19.34352 -19.29922 -19.27930 -19.22757 -14.60861
 Alpha  occ. eigenvalues --  -14.51988 -14.47663 -10.47278 -10.45262 -10.42697
 Alpha  occ. eigenvalues --  -10.40194 -10.36260 -10.36123 -10.35432 -10.30441
 Alpha  occ. eigenvalues --  -10.29649  -1.25725  -1.20718  -1.16781  -1.15331
 Alpha  occ. eigenvalues --   -1.14731  -1.08202  -1.04448  -0.94985  -0.90811
 Alpha  occ. eigenvalues --   -0.88577  -0.83070  -0.79877  -0.78288  -0.76195
 Alpha  occ. eigenvalues --   -0.75170  -0.74111  -0.72708  -0.70462  -0.67325
 Alpha  occ. eigenvalues --   -0.66215  -0.64422  -0.63640  -0.61932  -0.60533
 Alpha  occ. eigenvalues --   -0.59677  -0.59576  -0.57238  -0.56191  -0.55821
 Alpha  occ. eigenvalues --   -0.55312  -0.54717  -0.53709  -0.52987  -0.52162
 Alpha  occ. eigenvalues --   -0.51297  -0.50628  -0.50064  -0.48620  -0.48367
 Alpha  occ. eigenvalues --   -0.47099  -0.46889  -0.43218  -0.42107  -0.41917
 Alpha  occ. eigenvalues --   -0.37382  -0.36085
 Alpha virt. eigenvalues --   -0.14863  -0.13890  -0.10688  -0.09086  -0.07478
 Alpha virt. eigenvalues --   -0.05898  -0.05366  -0.04035  -0.02958  -0.01383
 Alpha virt. eigenvalues --   -0.00129   0.00344   0.01303   0.01823   0.02285

 Mulliken charges:
               1
     1  N   -0.751164
     2  C   -0.125191
     3  C    0.669769
     4  O   -0.513274
     5  C   -0.490869
     6  H    0.426573
     7  H    0.235864
     8  H    0.203859
     9  H    0.196840
    10  H    0.196939
    11  H    0.409403
    12  H    0.440437
    13  N   -0.639868
    14  C   -0.031427
    15  C    0.610250
    16  O   -0.476241
    17  C   -0.493314
    18  H    0.352241
    19  H    0.219764
    20  H    0.215790
    21  H    0.182535
    22  H    0.161754
    23  N   -0.584311
    24  C   -0.066896
    25  C    0.621297
    26  O   -0.538817
    27  C   -0.451012
    28  O   -0.516465
    29  H    0.429722
    30  H    0.321442
    31  H    0.236811
    32  H    0.199370
    33  H    0.156609
    34  H    0.191581
 Sum of Mulliken charges =   1.00000

 Dipole moment (field-independent basis, Debye):
    X=              8.4203    Y=            -71.3106    Z=            -42.6375  Tot=             83.5109
 Quadrupole moment (field-independent basis, Debye-Ang):
   XX=            -54.3286   YY=            973.7513   ZZ=            296.5952
   XY=           -113.2551   XZ=            -61.0778   YZ=            618.8746

 Normal termination of Gaussian 16 at Sat Jun  4 16:59:04 2022.
