 Gaussian 16, Revision C.01,
 Gaussian 16:  ES64L-G16RevC.01  3-Jul-2019

 ----------------------------------------------------------------------
 # B3LYP/6-31G* empiricaldispersion=gd3 guess=read geom=check nosymm in
 tegral(ultrafinegrid)
 ----------------------------------------------------------------------

 ------------------------------------------------------
 Candidate Structure: Conf:112 Charge calc in gas phase
 ------------------------------------------------------
 Structure from the checkpoint file:  "conf-112.chk"
 Charge =  1 Multiplicity = 1

                          Input orientation:
 ---------------------------------------------------------------------
 Center     Atomic      Atomic             Coordinates (Angstroms)
 Number     Number       Type             X           Y           Z
 ---------------------------------------------------------------------
      1          7           0       -0.891284   10.606747   -7.090528
      2          6           0       -0.248680   10.514556   -5.733499
      3          6           0       -1.114860    9.585269   -4.855019
      4          8           0       -0.696593    8.491245   -4.510879
      5          6           0       -0.045585   11.932121   -5.163155
      6          6           0        0.906545   12.756257   -6.003378
      7          6           0        2.292633   12.623754   -5.838557
      8          6           0        0.417762   13.619377   -6.992613
      9          6           0        3.173671   13.343628   -6.644223
     10          6           0        1.300770   14.334187   -7.805019
     11          6           0        2.678347   14.201170   -7.630911
     12          1           0       -1.878977   10.943220   -7.032360
     13          1           0        0.713418   10.016202   -5.860847
     14          1           0        0.334826   11.813535   -4.142723
     15          1           0       -1.014670   12.438744   -5.085072
     16          1           0        2.682019   11.961097   -5.068432
     17          1           0       -0.653228   13.717401   -7.147162
     18          1           0        4.245243   13.240044   -6.499638
     19          1           0        0.907127   14.998227   -8.569593
     20          1           0        3.365455   14.763888   -8.256476
     21          1           0       -0.456814   11.295082   -7.733804
     22          1           0       -0.932462    9.720539   -7.604335
     23          7           0       -2.339946   10.093051   -4.534127
     24          6           0       -3.453175    9.240161   -4.080556
     25          6           0       -4.473241    9.322456   -5.230211
     26          8           0       -4.510171    8.489041   -6.119476
     27          6           0       -3.963600    9.632965   -2.688991
     28          6           0       -2.911222    9.515408   -1.568562
     29          6           0       -3.507874   10.018549   -0.246260
     30          6           0       -2.371806    8.084813   -1.419994
     31          1           0       -2.628989   10.951233   -4.993610
     32          1           0       -3.085219    8.214365   -4.078089
     33          1           0       -4.336078   10.668379   -2.705049
     34          1           0       -4.827383    8.996551   -2.452166
     35          1           0       -2.070553   10.171645   -1.836632
     36          1           0       -4.349267    9.387598    0.067576
     37          1           0       -2.759834    9.994526    0.553538
     38          1           0       -3.874843   11.048914   -0.332073
     39          1           0       -3.191204    7.374745   -1.246896
     40          1           0       -1.812387    7.763841   -2.303860
     41          1           0       -1.693841    8.021413   -0.561661
     42          7           0       -5.253234   10.466146   -5.264676
     43          6           0       -5.726924   10.920295   -6.559195
     44          6           0       -4.517136   11.433861   -7.397700
     45          8           0       -3.429310   11.680025   -6.835124
     46          6           0       -6.836086   11.975011   -6.379656
     47          6           0       -7.798966   12.053700   -7.567354
     48          7           0       -8.972793   12.677745   -7.316082
     49          8           0       -7.530640   11.601247   -8.681889
     50          1           0       -5.008980   11.198779   -4.609768
     51          1           0       -6.136355   10.048371   -7.073966
     52          1           0       -7.400852   11.717743   -5.476073
     53          1           0       -6.408165   12.972777   -6.211612
     54          1           0       -9.653149   12.738728   -8.062075
     55          1           0       -9.248263   12.973962   -6.391335
     56          7           0       -4.748302   11.559697   -8.704002
     57          6           0       -3.806136   11.974011   -9.751997
     58          6           0       -2.364631   11.502183   -9.418063
     59          8           0       -1.497196   12.376250   -9.119964
     60          6           0       -3.930473   13.472966  -10.084669
     61          6           0       -3.550245   13.855833  -11.533039
     62          6           0       -2.055563   13.986681  -11.878080
     63          7           0       -1.291408   12.731159  -11.801856
     64          6           0       -1.389987   11.699234  -12.642858
     65          7           0       -1.704303   11.907422  -13.939057
     66          7           0       -1.165337   10.457446  -12.195389
     67          8           0       -2.144799   10.267449   -9.541252
     68          1           0       -5.720585   11.402223   -8.986156
     69          1           0       -4.102980   11.387168  -10.629474
     70          1           0       -3.338064   14.044284   -9.362411
     71          1           0       -4.981213   13.753739   -9.944928
     72          1           0       -4.016697   13.150678  -12.235737
     73          1           0       -3.993078   14.835693  -11.751762
     74          1           0       -1.944451   14.427274  -12.874770
     75          1           0       -1.562963   14.667352  -11.179403
     76          1           0       -0.994402   12.513498  -10.842484
     77          1           0       -1.856277   11.131422  -14.566066
     78          1           0       -1.568617   12.815610  -14.357887
     79          1           0       -1.068558    9.689729  -12.844817
     80          1           0       -1.352101   10.232996  -11.203054
 ---------------------------------------------------------------------

 SCF Done:  E(RB3LYP) =  -1866.73896580     A.U. after    2 cycles

 Alpha  occ. eigenvalues --  -19.23095 -19.22472 -19.21001 -19.20417 -19.19686
 Alpha  occ. eigenvalues --  -19.19431 -14.52312 -14.50615 -14.48679 -14.48340
 Alpha  occ. eigenvalues --  -14.46119 -14.45837 -14.45224 -14.45020 -10.45953
 Alpha  occ. eigenvalues --  -10.40122 -10.39487 -10.38395 -10.37717 -10.37376
 Alpha  occ. eigenvalues --  -10.34986 -10.34189 -10.33531 -10.32274 -10.31307
 Alpha  occ. eigenvalues --  -10.30991 -10.29783 -10.29530 -10.28188 -10.28138
 Alpha  occ. eigenvalues --  -10.26994 -10.26876 -10.26818 -10.26763 -10.26693
 Alpha  occ. eigenvalues --  -10.26505 -10.25515 -10.23361 -10.22589  -1.14770
 Alpha  occ. eigenvalues --   -1.14392  -1.14005  -1.13113  -1.12981  -1.12180
 Alpha  occ. eigenvalues --   -1.07841  -1.04385  -1.03331  -1.02618  -1.02260
 Alpha  occ. eigenvalues --   -1.02221  -1.01245  -1.00890  -0.93858  -0.90099
 Alpha  occ. eigenvalues --   -0.89417  -0.88259  -0.87517  -0.84670  -0.83407
 Alpha  occ. eigenvalues --   -0.82285  -0.81292  -0.79559  -0.77135  -0.75502
 Alpha  occ. eigenvalues --   -0.75466  -0.73996  -0.72949  -0.71523  -0.70772
 Alpha  occ. eigenvalues --   -0.70154  -0.68688  -0.68292  -0.68234  -0.67757
 Alpha  occ. eigenvalues --   -0.67288  -0.66926  -0.66017  -0.65622  -0.64119
 Alpha  occ. eigenvalues --   -0.63924  -0.63614  -0.63006  -0.62653  -0.61350
 Alpha  occ. eigenvalues --   -0.60507  -0.59467  -0.59340  -0.58974  -0.58663
 Alpha  occ. eigenvalues --   -0.57005  -0.56026  -0.55920  -0.55702  -0.55031
 Alpha  occ. eigenvalues --   -0.54500  -0.54307  -0.53615  -0.53589  -0.53286
 Alpha  occ. eigenvalues --   -0.53148  -0.52555  -0.52206  -0.51970  -0.50747
 Alpha  occ. eigenvalues --   -0.50554  -0.50403  -0.50051  -0.49911  -0.49486
 Alpha  occ. eigenvalues --   -0.49137  -0.48699  -0.48244  -0.47813  -0.47625
 Alpha  occ. eigenvalues --   -0.47172  -0.46903  -0.46559  -0.46134  -0.45970
 Alpha  occ. eigenvalues --   -0.45447  -0.45007  -0.44492  -0.44103  -0.43940
 Alpha  occ. eigenvalues --   -0.43655  -0.42923  -0.42221  -0.41920  -0.41314
 Alpha  occ. eigenvalues --   -0.39743  -0.38940  -0.38818  -0.38401  -0.37738
 Alpha  occ. eigenvalues --   -0.37226  -0.36687  -0.36357  -0.35970  -0.35778
 Alpha  occ. eigenvalues --   -0.35101  -0.34622  -0.34153  -0.33145  -0.32789
 Alpha  occ. eigenvalues --   -0.32478  -0.32303
 Alpha virt. eigenvalues --   -0.10850  -0.09762  -0.08831  -0.08294  -0.08072
 Alpha virt. eigenvalues --   -0.07977  -0.07188  -0.06291  -0.05645  -0.03188
 Alpha virt. eigenvalues --   -0.02409  -0.01765  -0.01106  -0.00278   0.00098

 Mulliken charges:
               1
     1  N   -0.798030
     2  C   -0.097087
     3  C    0.610297
     4  O   -0.482415
     5  C   -0.376835
     6  C    0.136579
     7  C   -0.178741
     8  C   -0.189446
     9  C   -0.127842
    10  C   -0.129160
    11  C   -0.126841
    12  H    0.451461
    13  H    0.209894
    14  H    0.194422
    15  H    0.169753
    16  H    0.141558
    17  H    0.155448
    18  H    0.151680
    19  H    0.133570
    20  H    0.146290
    21  H    0.417869
    22  H    0.409883
    23  N   -0.616610
    24  C   -0.077846
    25  C    0.588272
    26  O   -0.487942
    27  C   -0.261700
    28  C   -0.068404
    29  C   -0.445389
    30  C   -0.471943
    31  H    0.352585
    32  H    0.216433
    33  H    0.112456
    34  H    0.158027
    35  H    0.128493
    36  H    0.148399
    37  H    0.156082
    38  H    0.135783
    39  H    0.142274
    40  H    0.180459
    41  H    0.152629
    42  N   -0.598686
    43  C   -0.056387
    44  C    0.632716
    45  O   -0.599542
    46  C   -0.408851
    47  C    0.630685
    48  N   -0.737147
    49  O   -0.524995
    50  H    0.327744
    51  H    0.225267
    52  H    0.193052
    53  H    0.192386
    54  H    0.364870
    55  H    0.356794
    56  N   -0.613901
    57  C    0.009090
    58  C    0.553317
    59  O   -0.609769
    60  C   -0.270867
    61  C   -0.281321
    62  C   -0.162001
    63  N   -0.602889
    64  C    0.776209
    65  N   -0.756601
    66  N   -0.778555
    67  O   -0.599872
    68  H    0.398682
    69  H    0.152350
    70  H    0.174160
    71  H    0.151487
    72  H    0.149298
    73  H    0.167278
    74  H    0.157098
    75  H    0.193724
    76  H    0.397569
    77  H    0.373637
    78  H    0.379092
    79  H    0.360241
    80  H    0.420274
 Sum of Mulliken charges =   1.00000

 Dipole moment (field-independent basis, Debye):
    X=            -15.0654    Y=             61.5666    Z=            -46.6142  Tot=             78.6784
 Quadrupole moment (field-independent basis, Debye-Ang):
   XX=           -108.2538   YY=            552.1701   ZZ=            324.7568
   XY=           -203.5920   XZ=            112.4367   YZ=           -588.4073

 Normal termination of Gaussian 16 at Sat Jun 11 20:56:42 2022.
