 Gaussian 16, Revision C.01,
 Gaussian 16:  ES64L-G16RevC.01  3-Jul-2019

 ----------------------------------------------------------------------
 # B3LYP/6-31G* empiricaldispersion=gd3 guess=read geom=check nosymm in
 tegral(ultrafinegrid)
 ----------------------------------------------------------------------

 ------------------------------------------------------
 Candidate Structure: Conf:217 Charge calc in gas phase
 ------------------------------------------------------
 Structure from the checkpoint file:  "conf-217.chk"
 Charge =  1 Multiplicity = 1

                          Input orientation:
 ---------------------------------------------------------------------
 Center     Atomic      Atomic             Coordinates (Angstroms)
 Number     Number       Type             X           Y           Z
 ---------------------------------------------------------------------
      1          7           0       -1.069810   12.209440   -8.194828
      2          6           0       -0.151418   12.513295   -7.053402
      3          6           0       -0.085550   11.176516   -6.276666
      4          8           0       -0.116458   10.126771   -6.910975
      5          6           0       -0.679113   13.741652   -6.287031
      6          6           0       -0.871522   14.944249   -7.188955
      7          6           0        0.180697   15.840854   -7.416765
      8          6           0       -2.092037   15.138794   -7.852700
      9          6           0        0.017804   16.917035   -8.289285
     10          6           0       -2.249952   16.211016   -8.732869
     11          6           0       -1.198838   17.103230   -8.950345
     12          1           0       -1.165590   12.960198   -8.885784
     13          1           0        0.838157   12.722778   -7.473080
     14          1           0        0.043107   13.982546   -5.497904
     15          1           0       -1.627052   13.470698   -5.808986
     16          1           0        1.129045   15.702298   -6.901435
     17          1           0       -2.913550   14.442881   -7.702168
     18          1           0        0.837991   17.610761   -8.450159
     19          1           0       -3.198387   16.346597   -9.244511
     20          1           0       -1.325632   17.941619   -9.629223
     21          1           0       -0.832041   11.328325   -8.668169
     22          1           0       -2.029225   12.053113   -7.809808
     23          7           0       -0.052811   11.220742   -4.923895
     24          6           0       -0.169366    9.985640   -4.137982
     25          6           0       -1.493594    9.243486   -4.428696
     26          8           0       -1.564593    8.029691   -4.333475
     27          6           0       -0.031288   10.279968   -2.637823
     28          6           0        1.306431   10.911136   -2.200886
     29          6           0        1.282169   11.165104   -0.686528
     30          6           0        2.512119   10.046742   -2.593942
     31          1           0       -0.042789   12.106872   -4.439324
     32          1           0        0.606480    9.290680   -4.466047
     33          1           0       -0.865130   10.925761   -2.325307
     34          1           0       -0.167349    9.324490   -2.117098
     35          1           0        1.414480   11.888622   -2.698583
     36          1           0        1.196535   10.219399   -0.137136
     37          1           0        2.202245   11.659771   -0.357281
     38          1           0        0.435472   11.798809   -0.396879
     39          1           0        2.424884    9.041035   -2.164222
     40          1           0        2.610836    9.941083   -3.679932
     41          1           0        3.442025   10.489358   -2.221066
     42          7           0       -2.562300   10.041506   -4.748832
     43          6           0       -3.651394    9.510395   -5.548269
     44          6           0       -3.854996   10.498475   -6.725061
     45          8           0       -3.259738   11.599522   -6.714090
     46          6           0       -4.920826    9.259306   -4.698479
     47          6           0       -5.835279    8.183567   -5.280830
     48          7           0       -6.607570    7.525684   -4.386056
     49          8           0       -5.894329    7.934744   -6.488715
     50          1           0       -2.368257   11.013392   -4.959416
     51          1           0       -3.326830    8.548314   -5.959855
     52          1           0       -4.582890    8.961326   -3.701213
     53          1           0       -5.499557   10.184081   -4.575153
     54          1           0       -7.209194    6.786465   -4.724933
     55          1           0       -6.493857    7.630756   -3.388864
     56          7           0       -4.646676   10.082801   -7.709460
     57          6           0       -4.905597   10.792294   -8.969824
     58          6           0       -3.602020   11.474090   -9.487645
     59          8           0       -3.545908   12.736417   -9.515172
     60          6           0       -6.128045   11.725257   -8.887468
     61          6           0       -6.885497   11.921570  -10.220243
     62          6           0       -6.289908   12.896503  -11.251888
     63          7           0       -4.984914   12.493535  -11.800733
     64          6           0       -4.765105   11.475827  -12.635718
     65          7           0       -5.713784   11.110928  -13.524870
     66          7           0       -3.595255   10.825530  -12.595303
     67          8           0       -2.708849   10.688574   -9.909922
     68          1           0       -5.122162    9.187800   -7.542628
     69          1           0       -5.114403    9.990955   -9.688125
     70          1           0       -5.808658   12.687842   -8.475189
     71          1           0       -6.836665   11.280871   -8.178858
     72          1           0       -7.041017   10.945872  -10.702470
     73          1           0       -7.886883   12.306796   -9.989820
     74          1           0       -7.003307   13.052008  -12.068684
     75          1           0       -6.120442   13.874570  -10.795084
     76          1           0       -4.206430   12.752445  -11.180098
     77          1           0       -5.590033   10.298508  -14.110357
     78          1           0       -6.446562   11.755156  -13.782598
     79          1           0       -3.352173   10.169016  -13.323530
     80          1           0       -3.065049   10.781421  -11.706400
 ---------------------------------------------------------------------

 SCF Done:  E(RB3LYP) =  -1866.74464415     A.U. after    3 cycles

 Alpha  occ. eigenvalues --  -19.22464 -19.22225 -19.21330 -19.19101 -19.18567
 Alpha  occ. eigenvalues --  -19.18422 -14.52043 -14.50104 -14.48093 -14.47727
 Alpha  occ. eigenvalues --  -14.46903 -14.45037 -14.44995 -14.43215 -10.45390
 Alpha  occ. eigenvalues --  -10.39724 -10.38904 -10.38836 -10.36716 -10.36281
 Alpha  occ. eigenvalues --  -10.36031 -10.33606 -10.32556 -10.31724 -10.31463
 Alpha  occ. eigenvalues --  -10.30515 -10.29222 -10.28896 -10.28694 -10.27450
 Alpha  occ. eigenvalues --  -10.27346 -10.27102 -10.27097 -10.27087 -10.27034
 Alpha  occ. eigenvalues --  -10.26941 -10.26906 -10.24195 -10.24174  -1.14884
 Alpha  occ. eigenvalues --   -1.14019  -1.13753  -1.12841  -1.11951  -1.11037
 Alpha  occ. eigenvalues --   -1.07704  -1.03539  -1.03191  -1.02656  -1.01885
 Alpha  occ. eigenvalues --   -1.01545  -1.00211  -0.99739  -0.94207  -0.89981
 Alpha  occ. eigenvalues --   -0.89297  -0.88437  -0.87049  -0.84040  -0.83669
 Alpha  occ. eigenvalues --   -0.82595  -0.81747  -0.78876  -0.76686  -0.76062
 Alpha  occ. eigenvalues --   -0.75219  -0.74930  -0.72842  -0.70957  -0.70133
 Alpha  occ. eigenvalues --   -0.69994  -0.69056  -0.68918  -0.67733  -0.67439
 Alpha  occ. eigenvalues --   -0.66926  -0.66648  -0.65894  -0.65464  -0.64162
 Alpha  occ. eigenvalues --   -0.63903  -0.63089  -0.62732  -0.62248  -0.60968
 Alpha  occ. eigenvalues --   -0.59875  -0.59305  -0.58937  -0.58396  -0.57641
 Alpha  occ. eigenvalues --   -0.57053  -0.56360  -0.55536  -0.55283  -0.54535
 Alpha  occ. eigenvalues --   -0.54317  -0.53981  -0.53610  -0.53496  -0.52998
 Alpha  occ. eigenvalues --   -0.52748  -0.52191  -0.51953  -0.51669  -0.51163
 Alpha  occ. eigenvalues --   -0.50483  -0.50259  -0.50133  -0.49618  -0.49214
 Alpha  occ. eigenvalues --   -0.49022  -0.48683  -0.48467  -0.47918  -0.47253
 Alpha  occ. eigenvalues --   -0.46856  -0.46505  -0.46196  -0.45729  -0.45562
 Alpha  occ. eigenvalues --   -0.45379  -0.44935  -0.44651  -0.44223  -0.43975
 Alpha  occ. eigenvalues --   -0.43209  -0.42992  -0.42660  -0.42218  -0.40764
 Alpha  occ. eigenvalues --   -0.40257  -0.40135  -0.39847  -0.37809  -0.37352
 Alpha  occ. eigenvalues --   -0.36732  -0.36352  -0.36268  -0.35842  -0.35242
 Alpha  occ. eigenvalues --   -0.34736  -0.33682  -0.33246  -0.32888  -0.32727
 Alpha  occ. eigenvalues --   -0.32153  -0.32077
 Alpha virt. eigenvalues --   -0.10277  -0.09345  -0.08781  -0.08527  -0.08073
 Alpha virt. eigenvalues --   -0.06895  -0.06537  -0.05646  -0.05317  -0.03011
 Alpha virt. eigenvalues --   -0.02718  -0.00650  -0.00362   0.00456   0.00571

 Mulliken charges:
               1
     1  N   -0.786852
     2  C   -0.086852
     3  C    0.638800
     4  O   -0.510625
     5  C   -0.404176
     6  C    0.133201
     7  C   -0.179572
     8  C   -0.206574
     9  C   -0.127623
    10  C   -0.128026
    11  C   -0.125452
    12  H    0.404527
    13  H    0.211106
    14  H    0.168840
    15  H    0.194200
    16  H    0.134127
    17  H    0.173375
    18  H    0.152451
    19  H    0.142868
    20  H    0.149782
    21  H    0.419135
    22  H    0.482413
    23  N   -0.649953
    24  C   -0.024191
    25  C    0.604599
    26  O   -0.503489
    27  C   -0.305966
    28  C   -0.077001
    29  C   -0.443493
    30  C   -0.451938
    31  H    0.350259
    32  H    0.205647
    33  H    0.137875
    34  H    0.180440
    35  H    0.108285
    36  H    0.155358
    37  H    0.157259
    38  H    0.143647
    39  H    0.158230
    40  H    0.148327
    41  H    0.158124
    42  N   -0.613425
    43  C   -0.056543
    44  C    0.620379
    45  O   -0.609817
    46  C   -0.377491
    47  C    0.631450
    48  N   -0.736465
    49  O   -0.532602
    50  H    0.343610
    51  H    0.218191
    52  H    0.191411
    53  H    0.189675
    54  H    0.361646
    55  H    0.356571
    56  N   -0.615472
    57  C    0.010299
    58  C    0.540024
    59  O   -0.609659
    60  C   -0.268833
    61  C   -0.281125
    62  C   -0.161465
    63  N   -0.602794
    64  C    0.775463
    65  N   -0.757611
    66  N   -0.779460
    67  O   -0.601481
    68  H    0.401218
    69  H    0.146982
    70  H    0.175854
    71  H    0.150522
    72  H    0.147743
    73  H    0.165771
    74  H    0.155183
    75  H    0.193234
    76  H    0.397531
    77  H    0.372326
    78  H    0.378200
    79  H    0.358132
    80  H    0.421737
 Sum of Mulliken charges =   1.00000

 Dipole moment (field-independent basis, Debye):
    X=            -18.9776    Y=             57.6969    Z=            -42.7175  Tot=             74.2554
 Quadrupole moment (field-independent basis, Debye-Ang):
   XX=            -90.7841   YY=            480.1864   ZZ=            271.7327
   XY=           -194.0141   XZ=            199.4801   YZ=           -516.9897

 Normal termination of Gaussian 16 at Sat Jun 11 20:57:14 2022.
