 Gaussian 16, Revision C.01,
 Gaussian 16:  ES64L-G16RevC.01  3-Jul-2019

 ----------------------------------------------------------------------
 # B3LYP/6-31G* empiricaldispersion=gd3 guess=read geom=check nosymm in
 tegral(ultrafinegrid)
 ----------------------------------------------------------------------

 ------------------------------------------------------
 Candidate Structure: Conf:981 Charge calc in gas phase
 ------------------------------------------------------
 Structure from the checkpoint file:  "conf-981.chk"
 Charge =  1 Multiplicity = 1

                          Input orientation:
 ---------------------------------------------------------------------
 Center     Atomic      Atomic             Coordinates (Angstroms)
 Number     Number       Type             X           Y           Z
 ---------------------------------------------------------------------
      1          7           0        0.064748   11.427295   -6.530789
      2          6           0       -0.611963   11.544760   -5.194821
      3          6           0       -1.578036   10.339001   -5.119022
      4          8           0       -1.485447    9.436176   -5.947850
      5          6           0       -1.234093   12.942697   -5.026012
      6          6           0       -0.183716   14.030683   -5.128055
      7          6           0        0.726674   14.237352   -4.081718
      8          6           0       -0.080817   14.815907   -6.283059
      9          6           0        1.721867   15.208696   -4.185108
     10          6           0        0.915727   15.789585   -6.386544
     11          6           0        1.818717   15.987796   -5.341263
     12          1           0        1.074667   11.553659   -6.464826
     13          1           0        0.158125   11.392633   -4.430219
     14          1           0       -1.714862   12.987617   -4.041053
     15          1           0       -2.014106   13.064685   -5.781156
     16          1           0        0.648083   13.643194   -3.172531
     17          1           0       -0.776166   14.652574   -7.100632
     18          1           0        2.414830   15.363732   -3.363019
     19          1           0        0.982593   16.398268   -7.284396
     20          1           0        2.590129   16.748291   -5.421677
     21          1           0       -0.153632   10.484379   -6.909679
     22          1           0       -0.303057   12.109848   -7.275701
     23          7           0       -2.462100   10.319630   -4.098319
     24          6           0       -3.377981    9.184569   -3.890942
     25          6           0       -4.199668    8.884633   -5.160984
     26          8           0       -4.465335    7.738280   -5.484804
     27          6           0       -4.274370    9.481807   -2.676932
     28          6           0       -5.334310    8.406315   -2.367035
     29          6           0       -4.713603    7.016482   -2.165087
     30          6           0       -6.149246    8.835664   -1.138834
     31          1           0       -2.488853   11.083785   -3.437286
     32          1           0       -2.783460    8.283783   -3.721086
     33          1           0       -3.626354    9.607732   -1.796709
     34          1           0       -4.779917   10.443826   -2.845591
     35          1           0       -6.015457    8.348546   -3.226845
     36          1           0       -4.273798    6.638050   -3.092264
     37          1           0       -3.938245    7.041359   -1.387579
     38          1           0       -5.478527    6.300318   -1.845707
     39          1           0       -5.514029    8.885942   -0.245046
     40          1           0       -6.608557    9.821570   -1.280836
     41          1           0       -6.950893    8.117761   -0.935141
     42          7           0       -4.627919    9.990609   -5.848209
     43          6           0       -4.813852    9.902999   -7.287486
     44          6           0       -3.896712   10.995626   -7.892905
     45          8           0       -3.342014   11.823620   -7.157161
     46          6           0       -6.301647   10.025141   -7.688423
     47          6           0       -6.621327    9.372068   -9.031620
     48          7           0       -7.907906    8.982567   -9.198116
     49          8           0       -5.783143    9.221736   -9.924233
     50          1           0       -4.188551   10.871117   -5.592582
     51          1           0       -4.451915    8.923143   -7.616155
     52          1           0       -6.889970    9.551595   -6.895888
     53          1           0       -6.612561   11.077598   -7.726506
     54          1           0       -8.159149    8.517741  -10.060494
     55          1           0       -8.578967    8.988829   -8.444542
     56          7           0       -3.721984   10.952578   -9.221325
     57          6           0       -2.760042   11.801170   -9.926771
     58          6           0       -1.400014   11.738487   -9.179296
     59          8           0       -0.979682   12.789543   -8.577608
     60          6           0       -3.286618   13.224460  -10.191992
     61          6           0       -2.693520   13.925705  -11.433501
     62          6           0       -1.282100   14.525296  -11.313119
     63          7           0       -0.212121   13.536851  -11.093121
     64          6           0        0.221868   12.641850  -11.983427
     65          7           0        0.180853   12.921329  -13.302004
     66          7           0        0.715178   11.470378  -11.559269
     67          8           0       -0.751886   10.669973   -9.257330
     68          1           0       -4.262251   10.249517   -9.732487
     69          1           0       -2.591440   11.293104  -10.883103
     70          1           0       -3.140628   13.828317   -9.291363
     71          1           0       -4.366705   13.140759  -10.356653
     72          1           0       -2.715134   13.238903  -12.291888
     73          1           0       -3.351825   14.762148  -11.700452
     74          1           0       -1.052359   15.125528  -12.200527
     75          1           0       -1.228518   15.202345  -10.457152
     76          1           0       -0.109157   13.286981  -10.103224
     77          1           0        0.413734   12.221954  -13.990980
     78          1           0        0.082865   13.872585  -13.623980
     79          1           0        1.185157   10.851931  -12.205166
     80          1           0        0.373349   11.069024  -10.670826
 ---------------------------------------------------------------------

 SCF Done:  E(RB3LYP) =  -1866.74577804     A.U. after    1 cycles

 Alpha  occ. eigenvalues --  -19.22542 -19.20563 -19.20379 -19.20303 -19.19582
 Alpha  occ. eigenvalues --  -19.18657 -14.51813 -14.50732 -14.48819 -14.48531
 Alpha  occ. eigenvalues --  -14.46705 -14.44310 -14.43557 -14.42223 -10.46093
 Alpha  occ. eigenvalues --  -10.39712 -10.38090 -10.37818 -10.37006 -10.35883
 Alpha  occ. eigenvalues --  -10.35719 -10.34081 -10.31529 -10.31514 -10.31330
 Alpha  occ. eigenvalues --  -10.29443 -10.29103 -10.28400 -10.28310 -10.27335
 Alpha  occ. eigenvalues --  -10.27213 -10.27051 -10.27016 -10.26972 -10.26868
 Alpha  occ. eigenvalues --  -10.26807 -10.25532 -10.23305 -10.22619  -1.14947
 Alpha  occ. eigenvalues --   -1.14661  -1.13585  -1.12292  -1.11847  -1.10440
 Alpha  occ. eigenvalues --   -1.07157  -1.04504  -1.03461  -1.02988  -1.02454
 Alpha  occ. eigenvalues --   -1.00483  -0.99391  -0.99026  -0.93986  -0.89561
 Alpha  occ. eigenvalues --   -0.89371  -0.87941  -0.86302  -0.83853  -0.83332
 Alpha  occ. eigenvalues --   -0.82478  -0.81079  -0.78929  -0.76440  -0.75622
 Alpha  occ. eigenvalues --   -0.75068  -0.74026  -0.72408  -0.71663  -0.70455
 Alpha  occ. eigenvalues --   -0.69554  -0.68916  -0.68215  -0.67671  -0.67155
 Alpha  occ. eigenvalues --   -0.66838  -0.66537  -0.64769  -0.64494  -0.63781
 Alpha  occ. eigenvalues --   -0.63398  -0.62834  -0.62565  -0.61977  -0.61176
 Alpha  occ. eigenvalues --   -0.59865  -0.59377  -0.58728  -0.58059  -0.57317
 Alpha  occ. eigenvalues --   -0.56671  -0.56040  -0.55978  -0.54993  -0.54557
 Alpha  occ. eigenvalues --   -0.54065  -0.53690  -0.53393  -0.53147  -0.53109
 Alpha  occ. eigenvalues --   -0.52546  -0.51931  -0.51447  -0.51151  -0.50674
 Alpha  occ. eigenvalues --   -0.50374  -0.49890  -0.49539  -0.49320  -0.49171
 Alpha  occ. eigenvalues --   -0.48828  -0.48599  -0.48071  -0.47722  -0.47110
 Alpha  occ. eigenvalues --   -0.46498  -0.45952  -0.45795  -0.45473  -0.45050
 Alpha  occ. eigenvalues --   -0.44493  -0.44049  -0.43962  -0.43736  -0.43266
 Alpha  occ. eigenvalues --   -0.43041  -0.42459  -0.42110  -0.41904  -0.41395
 Alpha  occ. eigenvalues --   -0.39546  -0.38930  -0.38708  -0.38457  -0.36966
 Alpha  occ. eigenvalues --   -0.36611  -0.36499  -0.36164  -0.35560  -0.34803
 Alpha  occ. eigenvalues --   -0.34116  -0.33544  -0.33181  -0.33062  -0.32684
 Alpha  occ. eigenvalues --   -0.32353  -0.31702
 Alpha virt. eigenvalues --   -0.10885  -0.09549  -0.08244  -0.07902  -0.07550
 Alpha virt. eigenvalues --   -0.06630  -0.06235  -0.05523  -0.05046  -0.03847
 Alpha virt. eigenvalues --   -0.03266  -0.02073  -0.00461  -0.00089   0.00220

 Mulliken charges:
               1
     1  N   -0.796382
     2  C   -0.090534
     3  C    0.666258
     4  O   -0.521503
     5  C   -0.410627
     6  C    0.141245
     7  C   -0.187864
     8  C   -0.199740
     9  C   -0.128002
    10  C   -0.134233
    11  C   -0.126436
    12  H    0.385887
    13  H    0.198707
    14  H    0.157370
    15  H    0.238458
    16  H    0.127099
    17  H    0.169188
    18  H    0.150537
    19  H    0.136258
    20  H    0.149312
    21  H    0.426674
    22  H    0.462222
    23  N   -0.656333
    24  C   -0.015009
    25  C    0.617329
    26  O   -0.508344
    27  C   -0.308492
    28  C   -0.077583
    29  C   -0.462637
    30  C   -0.445816
    31  H    0.344497
    32  H    0.198849
    33  H    0.146477
    34  H    0.140383
    35  H    0.147323
    36  H    0.178656
    37  H    0.135531
    38  H    0.154293
    39  H    0.145235
    40  H    0.140509
    41  H    0.157306
    42  N   -0.605523
    43  C   -0.062616
    44  C    0.613513
    45  O   -0.572795
    46  C   -0.376867
    47  C    0.628649
    48  N   -0.738485
    49  O   -0.531198
    50  H    0.346199
    51  H    0.215244
    52  H    0.187544
    53  H    0.187478
    54  H    0.359066
    55  H    0.354124
    56  N   -0.624250
    57  C    0.012153
    58  C    0.577956
    59  O   -0.627217
    60  C   -0.270919
    61  C   -0.282147
    62  C   -0.164719
    63  N   -0.601891
    64  C    0.780533
    65  N   -0.757548
    66  N   -0.780841
    67  O   -0.576503
    68  H    0.393970
    69  H    0.143271
    70  H    0.182051
    71  H    0.154157
    72  H    0.146093
    73  H    0.167292
    74  H    0.156907
    75  H    0.193976
    76  H    0.391371
    77  H    0.374767
    78  H    0.380356
    79  H    0.360702
    80  H    0.420077
 Sum of Mulliken charges =   1.00000

 Dipole moment (field-independent basis, Debye):
    X=             -6.7585    Y=             60.8110    Z=            -43.8652  Tot=             75.2849
 Quadrupole moment (field-independent basis, Debye-Ang):
   XX=           -140.1755   YY=            542.3019   ZZ=            281.8373
   XY=            -65.5282   XZ=             46.1920   YZ=           -566.0736

 Normal termination of Gaussian 16 at Sat Jun 11 20:55:59 2022.
