 Gaussian 16, Revision C.01,
 Gaussian 16:  ES64L-G16RevC.01  3-Jul-2019

 ----------------------------------------------------------------------
 # B3LYP/6-31G* empiricaldispersion=gd3 guess=read geom=check nosymm in
 tegral(ultrafinegrid)
 ----------------------------------------------------------------------

 ------------------------------------------------------
 Candidate Structure: Conf:121 Charge calc in gas phase
 ------------------------------------------------------
 Structure from the checkpoint file:  "conf-121.chk"
 Charge =  1 Multiplicity = 1

                          Input orientation:
 ---------------------------------------------------------------------
 Center     Atomic      Atomic             Coordinates (Angstroms)
 Number     Number       Type             X           Y           Z
 ---------------------------------------------------------------------
      1          7           0       -1.922462   10.028775   -8.516398
      2          6           0       -1.785041    8.858402   -7.594320
      3          6           0       -3.159356    8.792794   -6.886100
      4          8           0       -4.164138    9.086819   -7.525829
      5          6           0       -0.546347    9.056541   -6.699300
      6          6           0        0.716106    9.286956   -7.505393
      7          6           0        1.498209    8.205187   -7.930888
      8          6           0        1.082957   10.587106   -7.883651
      9          6           0        2.630721    8.416114   -8.717604
     10          6           0        2.211313   10.795298   -8.679117
     11          6           0        2.988668    9.712957   -9.094363
     12          1           0       -1.130860   10.176717   -9.150240
     13          1           0       -1.667762    7.962771   -8.213480
     14          1           0       -0.431096    8.159154   -6.079819
     15          1           0       -0.731983    9.907151   -6.034082
     16          1           0        1.225723    7.193501   -7.637001
     17          1           0        0.477960   11.437007   -7.577915
     18          1           0        3.234378    7.569990   -9.033060
     19          1           0        2.480687   11.806647   -8.969464
     20          1           0        3.870857    9.877016   -9.706472
     21          1           0       -2.799195   10.006833   -9.052843
     22          1           0       -1.988164   10.895975   -7.936138
     23          7           0       -3.189966    8.466983   -5.572344
     24          6           0       -4.442928    8.564703   -4.812547
     25          6           0       -5.012918   10.001186   -4.828983
     26          8           0       -6.214045   10.198829   -4.753651
     27          6           0       -4.244514    8.077112   -3.370632
     28          6           0       -3.794473    6.609917   -3.217184
     29          6           0       -3.615354    6.282498   -1.727526
     30          6           0       -4.771480    5.630403   -3.881563
     31          1           0       -2.337436    8.245003   -5.078392
     32          1           0       -5.203899    7.967080   -5.318816
     33          1           0       -3.524378    8.739918   -2.868530
     34          1           0       -5.203737    8.216575   -2.857740
     35          1           0       -2.812417    6.489542   -3.702924
     36          1           0       -4.571035    6.366628   -1.195443
     37          1           0       -3.247572    5.259686   -1.592522
     38          1           0       -2.903168    6.963925   -1.247081
     39          1           0       -5.780662    5.748600   -3.467690
     40          1           0       -4.833227    5.776720   -4.965563
     41          1           0       -4.458415    4.595407   -3.707083
     42          7           0       -4.082582   11.007400   -4.887660
     43          6           0       -4.443660   12.297951   -5.445616
     44          6           0       -3.376577   12.625983   -6.520790
     45          8           0       -2.352791   11.911349   -6.610382
     46          6           0       -4.597064   13.378090   -4.347173
     47          6           0       -5.531169   14.518402   -4.746709
     48          7           0       -6.149067   15.153497   -3.724622
     49          8           0       -5.703780   14.865052   -5.919084
     50          1           0       -3.129191   10.745103   -5.108680
     51          1           0       -5.412106   12.187566   -5.945948
     52          1           0       -4.984045   12.873839   -3.456410
     53          1           0       -3.621541   13.801633   -4.074580
     54          1           0       -6.797192   15.898092   -3.945411
     55          1           0       -6.113423   14.816337   -2.774145
     56          7           0       -3.645069   13.655515   -7.318514
     57          6           0       -2.842631   14.087895   -8.470904
     58          6           0       -2.292973   12.850166   -9.244674
     59          8           0       -1.046083   12.643671   -9.253862
     60          6           0       -1.777623   15.135023   -8.095206
     61          6           0       -1.422275   16.132569   -9.220853
     62          6           0       -0.475649   15.653864  -10.336259
     63          7           0       -1.005852   14.562606  -11.169687
     64          6           0       -2.001014   14.662349  -12.053326
     65          7           0       -2.205506   15.820704  -12.716726
     66          7           0       -2.789012   13.605234  -12.287045
     67          8           0       -3.155509   12.173648   -9.870169
     68          1           0       -4.488226   14.190278   -7.077448
     69          1           0       -3.573610   14.546847   -9.146737
     70          1           0       -0.882747   14.614364   -7.739287
     71          1           0       -2.172327   15.723535   -7.258783
     72          1           0       -2.345706   16.515145   -9.678739
     73          1           0       -0.930214   17.000764   -8.764359
     74          1           0       -0.192954   16.501035  -10.970821
     75          1           0        0.449812   15.263560   -9.905982
     76          1           0       -0.872601   13.641118  -10.732415
     77          1           0       -2.997846   15.932828  -13.331347
     78          1           0       -1.465971   16.503243  -12.791893
     79          1           0       -3.433357   13.612164  -13.064975
     80          1           0       -2.938348   12.903170  -11.540159
 ---------------------------------------------------------------------

 SCF Done:  E(RB3LYP) =  -1866.74466804     A.U. after    2 cycles

 Alpha  occ. eigenvalues --  -19.22465 -19.22228 -19.21331 -19.19105 -19.18564
 Alpha  occ. eigenvalues --  -19.18412 -14.52046 -14.50108 -14.48104 -14.47732
 Alpha  occ. eigenvalues --  -14.46904 -14.45032 -14.44997 -14.43217 -10.45396
 Alpha  occ. eigenvalues --  -10.39726 -10.38902 -10.38837 -10.36711 -10.36283
 Alpha  occ. eigenvalues --  -10.36032 -10.33603 -10.32558 -10.31727 -10.31465
 Alpha  occ. eigenvalues --  -10.30512 -10.29222 -10.28896 -10.28689 -10.27445
 Alpha  occ. eigenvalues --  -10.27344 -10.27106 -10.27092 -10.27082 -10.27029
 Alpha  occ. eigenvalues --  -10.26936 -10.26908 -10.24195 -10.24176  -1.14886
 Alpha  occ. eigenvalues --   -1.14022  -1.13758  -1.12843  -1.11946  -1.11040
 Alpha  occ. eigenvalues --   -1.07704  -1.03539  -1.03192  -1.02659  -1.01887
 Alpha  occ. eigenvalues --   -1.01547  -1.00214  -0.99741  -0.94203  -0.89982
 Alpha  occ. eigenvalues --   -0.89296  -0.88437  -0.87050  -0.84039  -0.83668
 Alpha  occ. eigenvalues --   -0.82590  -0.81747  -0.78881  -0.76690  -0.76060
 Alpha  occ. eigenvalues --   -0.75220  -0.74931  -0.72844  -0.70966  -0.70137
 Alpha  occ. eigenvalues --   -0.69996  -0.69054  -0.68915  -0.67732  -0.67440
 Alpha  occ. eigenvalues --   -0.66924  -0.66648  -0.65895  -0.65463  -0.64165
 Alpha  occ. eigenvalues --   -0.63906  -0.63095  -0.62735  -0.62252  -0.60970
 Alpha  occ. eigenvalues --   -0.59875  -0.59301  -0.58946  -0.58398  -0.57642
 Alpha  occ. eigenvalues --   -0.57055  -0.56362  -0.55531  -0.55290  -0.54535
 Alpha  occ. eigenvalues --   -0.54315  -0.53979  -0.53610  -0.53495  -0.52998
 Alpha  occ. eigenvalues --   -0.52745  -0.52192  -0.51953  -0.51673  -0.51165
 Alpha  occ. eigenvalues --   -0.50484  -0.50256  -0.50128  -0.49610  -0.49211
 Alpha  occ. eigenvalues --   -0.49021  -0.48683  -0.48469  -0.47921  -0.47253
 Alpha  occ. eigenvalues --   -0.46857  -0.46508  -0.46197  -0.45734  -0.45564
 Alpha  occ. eigenvalues --   -0.45377  -0.44939  -0.44650  -0.44221  -0.43972
 Alpha  occ. eigenvalues --   -0.43203  -0.42991  -0.42656  -0.42213  -0.40768
 Alpha  occ. eigenvalues --   -0.40260  -0.40138  -0.39850  -0.37812  -0.37350
 Alpha  occ. eigenvalues --   -0.36732  -0.36356  -0.36271  -0.35847  -0.35241
 Alpha  occ. eigenvalues --   -0.34735  -0.33683  -0.33240  -0.32883  -0.32720
 Alpha  occ. eigenvalues --   -0.32157  -0.32070
 Alpha virt. eigenvalues --   -0.10281  -0.09344  -0.08778  -0.08522  -0.08074
 Alpha virt. eigenvalues --   -0.06896  -0.06537  -0.05641  -0.05320  -0.03011
 Alpha virt. eigenvalues --   -0.02722  -0.00651  -0.00364   0.00448   0.00569

 Mulliken charges:
               1
     1  N   -0.786834
     2  C   -0.086903
     3  C    0.638851
     4  O   -0.510643
     5  C   -0.404213
     6  C    0.133261
     7  C   -0.179575
     8  C   -0.206595
     9  C   -0.127614
    10  C   -0.128018
    11  C   -0.125434
    12  H    0.404652
    13  H    0.211143
    14  H    0.168786
    15  H    0.194298
    16  H    0.134093
    17  H    0.173393
    18  H    0.152439
    19  H    0.142792
    20  H    0.149771
    21  H    0.419110
    22  H    0.482367
    23  N   -0.649968
    24  C   -0.024096
    25  C    0.604648
    26  O   -0.503584
    27  C   -0.306031
    28  C   -0.077019
    29  C   -0.443497
    30  C   -0.451936
    31  H    0.350257
    32  H    0.205619
    33  H    0.137875
    34  H    0.180417
    35  H    0.108316
    36  H    0.155352
    37  H    0.157280
    38  H    0.143619
    39  H    0.158214
    40  H    0.148375
    41  H    0.158145
    42  N   -0.613466
    43  C   -0.056432
    44  C    0.620289
    45  O   -0.609938
    46  C   -0.377438
    47  C    0.631493
    48  N   -0.736435
    49  O   -0.532637
    50  H    0.343600
    51  H    0.218234
    52  H    0.191351
    53  H    0.189681
    54  H    0.361644
    55  H    0.356605
    56  N   -0.615279
    57  C    0.010230
    58  C    0.539742
    59  O   -0.609697
    60  C   -0.268711
    61  C   -0.281288
    62  C   -0.161428
    63  N   -0.602710
    64  C    0.775547
    65  N   -0.757623
    66  N   -0.779611
    67  O   -0.601284
    68  H    0.401248
    69  H    0.146661
    70  H    0.175911
    71  H    0.150470
    72  H    0.147704
    73  H    0.165778
    74  H    0.155236
    75  H    0.193310
    76  H    0.397482
    77  H    0.372346
    78  H    0.378232
    79  H    0.358228
    80  H    0.421844
 Sum of Mulliken charges =   1.00000

 Dipole moment (field-independent basis, Debye):
    X=             -8.4421    Y=             62.4531    Z=            -41.1521  Tot=             75.2672
 Quadrupole moment (field-independent basis, Debye-Ang):
   XX=           -203.7873   YY=            668.8974   ZZ=            227.5600
   XY=           -132.5132   XZ=             53.8705   YZ=           -574.2179

 Normal termination of Gaussian 16 at Sat Jun 11 20:56:45 2022.
