 Gaussian 16, Revision C.01,
 Gaussian 16:  ES64L-G16RevC.01  3-Jul-2019

 ----------------------------------------------------------------------
 # B3LYP/6-31G* empiricaldispersion=gd3 guess=read geom=check nosymm in
 tegral(ultrafinegrid)
 ----------------------------------------------------------------------

 ------------------------------------------------------
 Candidate Structure: Conf:727 Charge calc in gas phase
 ------------------------------------------------------
 Structure from the checkpoint file:  "conf-727.chk"
 Charge =  1 Multiplicity = 1

                          Input orientation:
 ---------------------------------------------------------------------
 Center     Atomic      Atomic             Coordinates (Angstroms)
 Number     Number       Type             X           Y           Z
 ---------------------------------------------------------------------
      1          7           0       -3.185842   12.889382   -8.491354
      2          6           0       -4.104117   11.917074   -9.166077
      3          6           0       -5.147532   11.576625   -8.080112
      4          8           0       -5.411661   12.430916   -7.236306
      5          6           0       -3.302578   10.751711   -9.768924
      6          6           0       -2.176212   11.249218  -10.650911
      7          6           0       -2.436755   11.710729  -11.948171
      8          6           0       -0.866045   11.309292  -10.156699
      9          6           0       -1.406949   12.217519  -12.741291
     10          6           0        0.166053   11.810943  -10.952953
     11          6           0       -0.102584   12.268012  -12.244129
     12          1           0       -2.506525   12.435415   -7.831306
     13          1           0       -4.613927   12.470876   -9.962716
     14          1           0       -3.993078   10.137864  -10.360045
     15          1           0       -2.907937   10.138471   -8.954420
     16          1           0       -3.448670   11.660498  -12.345381
     17          1           0       -0.662643   10.948547   -9.150513
     18          1           0       -1.620843   12.563921  -13.748169
     19          1           0        1.179176   11.846233  -10.565274
     20          1           0        0.700942   12.655405  -12.863528
     21          1           0       -2.620808   13.434514   -9.144654
     22          1           0       -3.751914   13.514406   -7.900377
     23          7           0       -5.698565   10.344467   -8.088027
     24          6           0       -6.541942    9.898688   -6.968435
     25          6           0       -5.804442   10.062360   -5.620830
     26          8           0       -6.417482   10.298614   -4.592737
     27          6           0       -6.996970    8.447924   -7.175330
     28          6           0       -7.838259    8.182611   -8.440574
     29          6           0       -8.191623    6.689980   -8.516058
     30          6           0       -9.103253    9.050270   -8.489987
     31          1           0       -5.425578    9.668737   -8.787758
     32          1           0       -7.403480   10.565428   -6.891315
     33          1           0       -6.111253    7.795804   -7.175533
     34          1           0       -7.582250    8.174858   -6.289025
     35          1           0       -7.228604    8.422468   -9.327442
     36          1           0       -8.818711    6.397817   -7.664733
     37          1           0       -8.747627    6.464910   -9.432404
     38          1           0       -7.293550    6.061041   -8.502247
     39          1           0       -9.722255    8.884308   -7.599548
     40          1           0       -8.872024   10.119865   -8.544195
     41          1           0       -9.708311    8.800188   -9.367975
     42          7           0       -4.445923    9.903937   -5.668522
     43          6           0       -3.610380   10.594637   -4.705658
     44          6           0       -2.395507   11.157760   -5.496303
     45          8           0       -2.297227   10.930926   -6.724463
     46          6           0       -3.248419    9.676135   -3.509667
     47          6           0       -3.012649   10.445420   -2.213283
     48          7           0       -3.414974    9.831688   -1.078408
     49          8           0       -2.464502   11.552134   -2.189892
     50          1           0       -4.004102    9.840282   -6.577981
     51          1           0       -4.176678   11.447994   -4.311948
     52          1           0       -4.078396    8.975129   -3.388083
     53          1           0       -2.351643    9.082934   -3.729479
     54          1           0       -3.299477   10.324709   -0.202453
     55          1           0       -3.977909    8.994288   -1.085044
     56          7           0       -1.541286   11.874630   -4.771645
     57          6           0       -0.278659   12.490802   -5.192842
     58          6           0       -0.419534   13.761578   -6.071511
     59          8           0       -1.073386   13.646086   -7.183276
     60          6           0        0.668642   11.475938   -5.872484
     61          6           0        2.077471   12.054639   -6.169137
     62          6           0        2.369568   12.267414   -7.663525
     63          7           0        1.493602   13.264348   -8.292718
     64          6           0        1.706065   14.587553   -8.339565
     65          7           0        2.946944   15.101667   -8.296991
     66          7           0        0.641806   15.384315   -8.537896
     67          8           0        0.231392   14.751856   -5.722089
     68          1           0       -1.783936   11.959793   -3.774032
     69          1           0        0.188728   12.828484   -4.265458
     70          1           0        0.188545   11.111620   -6.786820
     71          1           0        0.755920   10.609618   -5.207766
     72          1           0        2.212736   13.008332   -5.645989
     73          1           0        2.845211   11.370252   -5.790727
     74          1           0        3.415991   12.549175   -7.815076
     75          1           0        2.227017   11.332433   -8.216531
     76          1           0        0.494719   13.047243   -8.226088
     77          1           0        3.085575   16.092562   -8.167546
     78          1           0        3.758394   14.512063   -8.200443
     79          1           0        0.782744   16.379892   -8.425146
     80          1           0       -0.217789   15.016681   -8.086112
 ---------------------------------------------------------------------

 SCF Done:  E(RB3LYP) =  -1866.74208977     A.U. after    2 cycles

 Alpha  occ. eigenvalues --  -19.23603 -19.22295 -19.21094 -19.19618 -19.18849
 Alpha  occ. eigenvalues --  -19.17342 -14.53917 -14.49725 -14.47991 -14.47954
 Alpha  occ. eigenvalues --  -14.46489 -14.44812 -14.44707 -14.43433 -10.44769
 Alpha  occ. eigenvalues --  -10.40959 -10.38829 -10.38578 -10.37378 -10.36754
 Alpha  occ. eigenvalues --  -10.35752 -10.34174 -10.32709 -10.32458 -10.31652
 Alpha  occ. eigenvalues --  -10.30981 -10.30466 -10.29250 -10.29205 -10.29049
 Alpha  occ. eigenvalues --  -10.29028 -10.28898 -10.28744 -10.28642 -10.28006
 Alpha  occ. eigenvalues --  -10.27748 -10.27532 -10.24752 -10.24689  -1.16148
 Alpha  occ. eigenvalues --   -1.13626  -1.13443  -1.12624  -1.11578  -1.11077
 Alpha  occ. eigenvalues --   -1.09225  -1.04278  -1.03219  -1.02138  -1.01602
 Alpha  occ. eigenvalues --   -1.01056  -1.00585  -0.99550  -0.96048  -0.91189
 Alpha  occ. eigenvalues --   -0.89556  -0.89384  -0.87099  -0.85160  -0.84532
 Alpha  occ. eigenvalues --   -0.83787  -0.82768  -0.78474  -0.77591  -0.76432
 Alpha  occ. eigenvalues --   -0.75767  -0.75179  -0.73408  -0.71185  -0.70731
 Alpha  occ. eigenvalues --   -0.70608  -0.70121  -0.69385  -0.68808  -0.68359
 Alpha  occ. eigenvalues --   -0.67195  -0.66559  -0.66380  -0.65648  -0.64886
 Alpha  occ. eigenvalues --   -0.63852  -0.62811  -0.62369  -0.62089  -0.61029
 Alpha  occ. eigenvalues --   -0.60662  -0.59860  -0.59380  -0.58437  -0.58225
 Alpha  occ. eigenvalues --   -0.58066  -0.56837  -0.56046  -0.55970  -0.55487
 Alpha  occ. eigenvalues --   -0.55389  -0.54465  -0.54026  -0.53648  -0.53571
 Alpha  occ. eigenvalues --   -0.53238  -0.52568  -0.52223  -0.52015  -0.51929
 Alpha  occ. eigenvalues --   -0.51507  -0.51186  -0.50724  -0.50373  -0.50054
 Alpha  occ. eigenvalues --   -0.49846  -0.49085  -0.48524  -0.48206  -0.47334
 Alpha  occ. eigenvalues --   -0.47112  -0.46599  -0.46491  -0.46259  -0.46101
 Alpha  occ. eigenvalues --   -0.45864  -0.45512  -0.44715  -0.44576  -0.44513
 Alpha  occ. eigenvalues --   -0.44247  -0.44082  -0.43385  -0.43272  -0.40844
 Alpha  occ. eigenvalues --   -0.40763  -0.40433  -0.40183  -0.38165  -0.37825
 Alpha  occ. eigenvalues --   -0.37443  -0.37247  -0.36530  -0.35998  -0.35160
 Alpha  occ. eigenvalues --   -0.35055  -0.34660  -0.34096  -0.33926  -0.32896
 Alpha  occ. eigenvalues --   -0.32585  -0.30577
 Alpha virt. eigenvalues --   -0.11140  -0.10451  -0.09985  -0.09527  -0.08011
 Alpha virt. eigenvalues --   -0.06719  -0.06056  -0.05853  -0.04501  -0.04169
 Alpha virt. eigenvalues --   -0.03177  -0.02559  -0.01802  -0.00478  -0.00023

 Mulliken charges:
               1
     1  N   -0.769790
     2  C   -0.091018
     3  C    0.650835
     4  O   -0.520378
     5  C   -0.400862
     6  C    0.127145
     7  C   -0.185521
     8  C   -0.214598
     9  C   -0.125857
    10  C   -0.128421
    11  C   -0.125988
    12  H    0.479250
    13  H    0.210565
    14  H    0.172064
    15  H    0.206915
    16  H    0.140175
    17  H    0.161684
    18  H    0.159293
    19  H    0.145653
    20  H    0.154590
    21  H    0.397287
    22  H    0.411103
    23  N   -0.647757
    24  C   -0.023652
    25  C    0.605616
    26  O   -0.507871
    27  C   -0.307473
    28  C   -0.079240
    29  C   -0.443619
    30  C   -0.451795
    31  H    0.351553
    32  H    0.206277
    33  H    0.139862
    34  H    0.182041
    35  H    0.106924
    36  H    0.156887
    37  H    0.158406
    38  H    0.144299
    39  H    0.159724
    40  H    0.147253
    41  H    0.159714
    42  N   -0.614653
    43  C   -0.048138
    44  C    0.606288
    45  O   -0.616445
    46  C   -0.373298
    47  C    0.631848
    48  N   -0.735260
    49  O   -0.529102
    50  H    0.342346
    51  H    0.214088
    52  H    0.189212
    53  H    0.186831
    54  H    0.363067
    55  H    0.357855
    56  N   -0.625104
    57  C   -0.019472
    58  C    0.590488
    59  O   -0.677443
    60  C   -0.314982
    61  C   -0.277192
    62  C   -0.184078
    63  N   -0.599272
    64  C    0.786224
    65  N   -0.760202
    66  N   -0.745274
    67  O   -0.537865
    68  H    0.410491
    69  H    0.175025
    70  H    0.172708
    71  H    0.159419
    72  H    0.185801
    73  H    0.163816
    74  H    0.153701
    75  H    0.180677
    76  H    0.384722
    77  H    0.377107
    78  H    0.376591
    79  H    0.349886
    80  H    0.388314
 Sum of Mulliken charges =   1.00000

 Dipole moment (field-independent basis, Debye):
    X=             -4.7511    Y=             55.5548    Z=            -40.4104  Tot=             68.8615
 Quadrupole moment (field-independent basis, Debye-Ang):
   XX=           -148.8629   YY=            457.1503   ZZ=            161.8973
   XY=             -5.8012   XZ=             45.3740   YZ=           -502.6099

 Normal termination of Gaussian 16 at Sat Jun 11 20:56:48 2022.
