 Gaussian 16, Revision C.01,
 Gaussian 16:  ES64L-G16RevC.01  3-Jul-2019

 ----------------------------------------------------------------------
 # B3LYP/6-31G* empiricaldispersion=gd3 guess=read geom=check nosymm in
 tegral(ultrafinegrid)
 ----------------------------------------------------------------------

 ------------------------------------------------------
 Candidate Structure: Conf:883 Charge calc in gas phase
 ------------------------------------------------------
 Structure from the checkpoint file:  "conf-883.chk"
 Charge =  1 Multiplicity = 1

                          Input orientation:
 ---------------------------------------------------------------------
 Center     Atomic      Atomic             Coordinates (Angstroms)
 Number     Number       Type             X           Y           Z
 ---------------------------------------------------------------------
      1          7           0       -0.685909   11.982242   -6.481770
      2          6           0       -1.091032   12.700474   -5.233513
      3          6           0       -1.721425   11.578225   -4.371368
      4          8           0       -1.201660   10.467592   -4.393711
      5          6           0       -1.996106   13.891505   -5.599764
      6          6           0       -1.371806   14.798315   -6.641156
      7          6           0       -0.463708   15.799516   -6.271343
      8          6           0       -1.664527   14.609934   -7.998977
      9          6           0        0.136012   16.604787   -7.239869
     10          6           0       -1.065513   15.416941   -8.968023
     11          6           0       -0.166615   16.415878   -8.591047
     12          1           0       -0.159690   12.540244   -7.162103
     13          1           0       -0.176850   13.048355   -4.741916
     14          1           0       -2.197121   14.457413   -4.682248
     15          1           0       -2.949170   13.501940   -5.973976
     16          1           0       -0.234653   15.958815   -5.219698
     17          1           0       -2.347633   13.818791   -8.296338
     18          1           0        0.829935   17.384556   -6.939573
     19          1           0       -1.313252   15.265980  -10.014557
     20          1           0        0.290758   17.052713   -9.343344
     21          1           0       -0.172885   11.111711   -6.291372
     22          1           0       -1.549981   11.675201   -6.986057
     23          7           0       -2.867285   11.843872   -3.701107
     24          6           0       -3.632881   10.755787   -3.072185
     25          6           0       -3.966816    9.648168   -4.096479
     26          8           0       -4.026290    8.473214   -3.766806
     27          6           0       -4.894580   11.341199   -2.415527
     28          6           0       -5.831996   10.310693   -1.755425
     29          6           0       -5.110635    9.457517   -0.702223
     30          6           0       -7.039417   11.039741   -1.148985
     31          1           0       -3.267178   12.771758   -3.710782
     32          1           0       -2.999577   10.268406   -2.328158
     33          1           0       -4.573437   12.069383   -1.656645
     34          1           0       -5.458407   11.898503   -3.178645
     35          1           0       -6.197733    9.635798   -2.541021
     36          1           0       -4.356185    8.812082   -1.160864
     37          1           0       -4.625453   10.091032    0.052267
     38          1           0       -5.825248    8.811503   -0.180743
     39          1           0       -6.725475   11.711444   -0.339707
     40          1           0       -7.569609   11.640589   -1.898087
     41          1           0       -7.752576   10.323781   -0.726807
     42          7           0       -4.224765   10.078198   -5.369614
     43          6           0       -4.020595    9.175110   -6.488760
     44          6           0       -3.353628   10.006192   -7.609464
     45          8           0       -3.132690   11.230978   -7.429760
     46          6           0       -5.332555    8.450854   -6.880992
     47          6           0       -5.096468    7.095715   -7.542394
     48          7           0       -6.009808    6.137937   -7.265514
     49          8           0       -4.150073    6.883097   -8.306380
     50          1           0       -4.013259   11.041633   -5.601075
     51          1           0       -3.295544    8.410883   -6.181027
     52          1           0       -5.908140    8.326419   -5.959840
     53          1           0       -5.933437    9.070156   -7.558975
     54          1           0       -5.869603    5.217155   -7.660686
     55          1           0       -6.708375    6.247101   -6.545590
     56          7           0       -2.994595    9.354148   -8.706879
     57          6           0       -2.166156    9.946604   -9.766031
     58          6           0       -0.930072   10.648852   -9.096085
     59          8           0       -0.696598   11.881497   -9.389679
     60          6           0       -3.008995   10.805012  -10.729469
     61          6           0       -2.371433   10.978131  -12.136911
     62          6           0       -2.181064   12.438368  -12.576555
     63          7           0       -1.223562   13.090490  -11.671893
     64          6           0        0.017390   13.459853  -11.987718
     65          7           0        0.319302   13.982442  -13.194328
     66          7           0        0.977808   13.326270  -11.061770
     67          8           0       -0.299762    9.977386   -8.273347
     68          1           0       -3.225002    8.351888   -8.734323
     69          1           0       -1.760841    9.088651  -10.312916
     70          1           0       -3.202286   11.770928  -10.249652
     71          1           0       -3.984616   10.321036  -10.838357
     72          1           0       -1.389740   10.488119  -12.173355
     73          1           0       -2.991396   10.478936  -12.889681
     74          1           0       -1.809817   12.478688  -13.605829
     75          1           0       -3.130816   12.983127  -12.542771
     76          1           0       -1.260786   12.704550  -10.698772
     77          1           0        1.274340   14.029930  -13.516741
     78          1           0       -0.409925   14.227051  -13.846666
     79          1           0        1.814897   13.889579  -11.088040
     80          1           0        0.734155   12.798585  -10.213515
 ---------------------------------------------------------------------

 SCF Done:  E(RB3LYP) =  -1866.74844522     A.U. after    1 cycles

 Alpha  occ. eigenvalues --  -19.22676 -19.22494 -19.21034 -19.19572 -19.19498
 Alpha  occ. eigenvalues --  -19.17417 -14.52256 -14.50090 -14.48195 -14.47221
 Alpha  occ. eigenvalues --  -14.47161 -14.44811 -14.44740 -14.43460 -10.45193
 Alpha  occ. eigenvalues --  -10.40007 -10.38963 -10.38545 -10.36596 -10.36463
 Alpha  occ. eigenvalues --  -10.36446 -10.33791 -10.32765 -10.32066 -10.31559
 Alpha  occ. eigenvalues --  -10.31180 -10.29778 -10.29098 -10.29056 -10.28604
 Alpha  occ. eigenvalues --  -10.28421 -10.28375 -10.28346 -10.28316 -10.27947
 Alpha  occ. eigenvalues --  -10.27422 -10.25925 -10.23659 -10.22937  -1.15166
 Alpha  occ. eigenvalues --   -1.14050  -1.13777  -1.12591  -1.11724  -1.11314
 Alpha  occ. eigenvalues --   -1.07934  -1.03622  -1.03441  -1.02488  -1.01828
 Alpha  occ. eigenvalues --   -1.01543  -1.00435  -0.99485  -0.95359  -0.90380
 Alpha  occ. eigenvalues --   -0.89528  -0.88630  -0.86985  -0.84440  -0.83869
 Alpha  occ. eigenvalues --   -0.83707  -0.81837  -0.78424  -0.76765  -0.76490
 Alpha  occ. eigenvalues --   -0.75319  -0.74378  -0.72954  -0.70700  -0.70613
 Alpha  occ. eigenvalues --   -0.70396  -0.69926  -0.68822  -0.68234  -0.67589
 Alpha  occ. eigenvalues --   -0.67463  -0.67223  -0.66052  -0.65649  -0.64127
 Alpha  occ. eigenvalues --   -0.63012  -0.62873  -0.62555  -0.62473  -0.61612
 Alpha  occ. eigenvalues --   -0.60496  -0.60159  -0.59152  -0.58709  -0.58089
 Alpha  occ. eigenvalues --   -0.56939  -0.56605  -0.56131  -0.55585  -0.55299
 Alpha  occ. eigenvalues --   -0.54953  -0.54345  -0.53627  -0.53426  -0.53002
 Alpha  occ. eigenvalues --   -0.52648  -0.52274  -0.51774  -0.51438  -0.51180
 Alpha  occ. eigenvalues --   -0.51000  -0.50307  -0.50181  -0.50024  -0.49721
 Alpha  occ. eigenvalues --   -0.49506  -0.49054  -0.48437  -0.48229  -0.47632
 Alpha  occ. eigenvalues --   -0.47463  -0.46837  -0.46290  -0.45736  -0.45322
 Alpha  occ. eigenvalues --   -0.45144  -0.44691  -0.44398  -0.44321  -0.43987
 Alpha  occ. eigenvalues --   -0.43858  -0.43615  -0.43459  -0.42752  -0.40579
 Alpha  occ. eigenvalues --   -0.39911  -0.39312  -0.39084  -0.37865  -0.37450
 Alpha  occ. eigenvalues --   -0.36950  -0.36660  -0.36483  -0.35909  -0.34985
 Alpha  occ. eigenvalues --   -0.34751  -0.34197  -0.34153  -0.33855  -0.33292
 Alpha  occ. eigenvalues --   -0.32514  -0.31569
 Alpha virt. eigenvalues --   -0.10295  -0.10146  -0.09725  -0.09368  -0.08532
 Alpha virt. eigenvalues --   -0.06648  -0.05844  -0.05771  -0.04484  -0.02769
 Alpha virt. eigenvalues --   -0.01989  -0.01114  -0.00422  -0.00346   0.00303

 Mulliken charges:
               1
     1  N   -0.787561
     2  C   -0.082984
     3  C    0.632588
     4  O   -0.503811
     5  C   -0.403448
     6  C    0.126646
     7  C   -0.179560
     8  C   -0.191885
     9  C   -0.127760
    10  C   -0.138679
    11  C   -0.134163
    12  H    0.400338
    13  H    0.211272
    14  H    0.174990
    15  H    0.190050
    16  H    0.140229
    17  H    0.165296
    18  H    0.155057
    19  H    0.139696
    20  H    0.141740
    21  H    0.425158
    22  H    0.474115
    23  N   -0.654350
    24  C   -0.014667
    25  C    0.622522
    26  O   -0.513758
    27  C   -0.307295
    28  C   -0.076194
    29  C   -0.462316
    30  C   -0.445894
    31  H    0.348206
    32  H    0.207511
    33  H    0.152486
    34  H    0.134858
    35  H    0.143262
    36  H    0.178093
    37  H    0.138189
    38  H    0.154672
    39  H    0.146903
    40  H    0.139603
    41  H    0.157859
    42  N   -0.618417
    43  C   -0.049034
    44  C    0.613300
    45  O   -0.621546
    46  C   -0.373786
    47  C    0.631748
    48  N   -0.735132
    49  O   -0.530523
    50  H    0.344000
    51  H    0.222335
    52  H    0.189557
    53  H    0.187667
    54  H    0.362546
    55  H    0.357549
    56  N   -0.597645
    57  C   -0.039305
    58  C    0.582400
    59  O   -0.658523
    60  C   -0.286222
    61  C   -0.284029
    62  C   -0.171254
    63  N   -0.618361
    64  C    0.763887
    65  N   -0.753465
    66  N   -0.770305
    67  O   -0.549294
    68  H    0.407155
    69  H    0.174243
    70  H    0.167219
    71  H    0.160384
    72  H    0.160261
    73  H    0.170598
    74  H    0.155304
    75  H    0.182257
    76  H    0.430406
    77  H    0.374174
    78  H    0.377325
    79  H    0.358619
    80  H    0.406890
 Sum of Mulliken charges =   1.00000

 Dipole moment (field-independent basis, Debye):
    X=            -10.3636    Y=             63.1252    Z=            -44.7804  Tot=             78.0863
 Quadrupole moment (field-independent basis, Debye-Ang):
   XX=           -151.0099   YY=            630.0372   ZZ=            279.5868
   XY=            -80.8450   XZ=             57.0126   YZ=           -589.4479

 Normal termination of Gaussian 16 at Sat Jun 11 20:55:59 2022.
