 Gaussian 16, Revision C.01,
 Gaussian 16:  ES64L-G16RevC.01  3-Jul-2019

 ----------------------------------------------------------------------
 # B3LYP/6-31G* empiricaldispersion=gd3 guess=read geom=check nosymm in
 tegral(ultrafinegrid)
 ----------------------------------------------------------------------

 ------------------------------------------------------
 Candidate Structure: Conf:962 Charge calc in gas phase
 ------------------------------------------------------
 Structure from the checkpoint file:  "conf-962.chk"
 Charge =  1 Multiplicity = 1

                          Input orientation:
 ---------------------------------------------------------------------
 Center     Atomic      Atomic             Coordinates (Angstroms)
 Number     Number       Type             X           Y           Z
 ---------------------------------------------------------------------
      1          7           0       -2.668358   11.954391   -3.869540
      2          6           0       -2.355408   10.520683   -4.046508
      3          6           0       -0.939217   10.478326   -4.662157
      4          8           0       -0.216577   11.464370   -4.626730
      5          6           0       -3.422750    9.859111   -4.957345
      6          6           0       -4.839031   10.216707   -4.558730
      7          6           0       -5.372997    9.782772   -3.336517
      8          6           0       -5.618731   11.029352   -5.391842
      9          6           0       -6.661904   10.153152   -2.952134
     10          6           0       -6.910143   11.397335   -5.007651
     11          6           0       -7.434060   10.963804   -3.788750
     12          1           0       -3.561628   12.060054   -3.392142
     13          1           0       -2.336805    9.999058   -3.077526
     14          1           0       -3.293022    8.769388   -4.903589
     15          1           0       -3.251578   10.162961   -5.994578
     16          1           0       -4.779529    9.143958   -2.684823
     17          1           0       -5.217136   11.358437   -6.345527
     18          1           0       -7.065748    9.804031   -2.005843
     19          1           0       -7.508753   12.020178   -5.667152
     20          1           0       -8.440137   11.248002   -3.492979
     21          1           0       -1.930052   12.394889   -3.322328
     22          1           0       -2.543967   12.558241   -5.302350
     23          7           0       -0.569199    9.314981   -5.277679
     24          6           0        0.514324    9.301395   -6.264041
     25          6           0        0.016318    9.871236   -7.609969
     26          8           0        0.619456   10.748747   -8.217077
     27          6           0        1.088891    7.884734   -6.414366
     28          6           0        2.157130    7.732254   -7.514766
     29          6           0        3.325743    8.711460   -7.328989
     30          6           0        2.651004    6.279332   -7.553389
     31          1           0       -1.193284    8.520730   -5.242648
     32          1           0        1.275893    9.997481   -5.914108
     33          1           0        1.513012    7.592491   -5.444694
     34          1           0        0.264325    7.185598   -6.623430
     35          1           0        1.679988    7.953484   -8.480749
     36          1           0        3.004458    9.750618   -7.449321
     37          1           0        3.777096    8.597318   -6.334719
     38          1           0        4.107327    8.519019   -8.072028
     39          1           0        3.155445    6.013657   -6.615693
     40          1           0        1.823928    5.574093   -7.701025
     41          1           0        3.367360    6.132833   -8.368896
     42          7           0       -1.123693    9.288674   -8.104621
     43          6           0       -1.795598    9.844998   -9.276082
     44          6           0       -2.628827   11.055220   -8.832916
     45          8           0       -3.762023   10.923840   -8.365328
     46          6           0       -2.698235    8.806675   -9.937154
     47          6           0       -3.317093    9.386197  -11.211527
     48          7           0       -3.963069    8.489673  -12.001707
     49          8           0       -3.236756   10.578230  -11.489432
     50          1           0       -1.701246    8.755145   -7.468927
     51          1           0       -1.019036   10.164728   -9.972356
     52          1           0       -2.125200    7.898776  -10.157263
     53          1           0       -3.512202    8.540718   -9.250762
     54          1           0       -4.408977    8.823557  -12.844917
     55          1           0       -4.025585    7.507790  -11.778417
     56          7           0       -2.019890   12.260212   -8.940904
     57          6           0       -2.750376   13.444665   -8.520586
     58          6           0       -3.140915   13.352085   -7.024703
     59          8           0       -4.151601   13.905746   -6.564616
     60          6           0       -3.968340   13.713462   -9.449551
     61          6           0       -4.023925   15.097784  -10.128577
     62          6           0       -3.891816   16.328382   -9.215138
     63          7           0       -4.702882   16.158154   -7.998203
     64          6           0       -4.754821   17.031171   -6.991363
     65          7           0       -4.628080   18.352343   -7.208471
     66          7           0       -4.930279   16.565964   -5.745806
     67          8           0       -2.272404   12.703430   -6.316156
     68          1           0       -1.009582   12.276603   -9.025804
     69          1           0       -2.035296   14.274868   -8.579797
     70          1           0       -4.890894   13.521773   -8.894951
     71          1           0       -3.946025   12.962404  -10.243338
     72          1           0       -3.227013   15.176526  -10.877636
     73          1           0       -4.972085   15.161008  -10.674241
     74          1           0       -2.845104   16.489847   -8.922902
     75          1           0       -4.217288   17.217385   -9.766034
     76          1           0       -4.759159   15.186271   -7.664735
     77          1           0       -4.586052   19.009317   -6.443515
     78          1           0       -4.710002   18.729679   -8.140784
     79          1           0       -5.227975   17.162411   -4.988184
     80          1           0       -4.786224   15.571902   -5.573949
 ---------------------------------------------------------------------

 SCF Done:  E(RB3LYP) =  -1866.73987812     A.U. after    1 cycles

 Alpha  occ. eigenvalues --  -19.25754 -19.23708 -19.20296 -19.20193 -19.20095
 Alpha  occ. eigenvalues --  -19.19110 -14.51485 -14.50270 -14.48905 -14.45006
 Alpha  occ. eigenvalues --  -14.44889 -14.44057 -14.43949 -14.43378 -10.46818
 Alpha  occ. eigenvalues --  -10.41431 -10.37533 -10.36993 -10.36951 -10.36731
 Alpha  occ. eigenvalues --  -10.34746 -10.33325 -10.32604 -10.31667 -10.31083
 Alpha  occ. eigenvalues --  -10.29352 -10.28184 -10.28172 -10.27755 -10.27285
 Alpha  occ. eigenvalues --  -10.26552 -10.26420 -10.26254 -10.26116 -10.26059
 Alpha  occ. eigenvalues --  -10.25751 -10.25576 -10.23293 -10.22737  -1.18557
 Alpha  occ. eigenvalues --   -1.15383  -1.12724  -1.12289  -1.11522  -1.10763
 Alpha  occ. eigenvalues --   -1.09733  -1.04477  -1.03666  -1.02001  -1.00982
 Alpha  occ. eigenvalues --   -1.00411  -1.00098  -0.98099  -0.92797  -0.90075
 Alpha  occ. eigenvalues --   -0.88668  -0.86698  -0.86209  -0.84470  -0.82479
 Alpha  occ. eigenvalues --   -0.81551  -0.79695  -0.79383  -0.77542  -0.75808
 Alpha  occ. eigenvalues --   -0.74083  -0.73692  -0.72472  -0.72156  -0.71696
 Alpha  occ. eigenvalues --   -0.69974  -0.68600  -0.67997  -0.67532  -0.67047
 Alpha  occ. eigenvalues --   -0.66211  -0.65333  -0.64935  -0.64484  -0.63930
 Alpha  occ. eigenvalues --   -0.63497  -0.62523  -0.62096  -0.61128  -0.60403
 Alpha  occ. eigenvalues --   -0.59671  -0.58951  -0.58782  -0.58474  -0.58242
 Alpha  occ. eigenvalues --   -0.57340  -0.56778  -0.55879  -0.54868  -0.54314
 Alpha  occ. eigenvalues --   -0.54219  -0.53437  -0.52737  -0.52580  -0.52412
 Alpha  occ. eigenvalues --   -0.52090  -0.51975  -0.51518  -0.51065  -0.49991
 Alpha  occ. eigenvalues --   -0.49889  -0.49400  -0.48926  -0.48826  -0.48183
 Alpha  occ. eigenvalues --   -0.47925  -0.47796  -0.47525  -0.47192  -0.46833
 Alpha  occ. eigenvalues --   -0.46488  -0.46102  -0.45601  -0.45028  -0.44598
 Alpha  occ. eigenvalues --   -0.44411  -0.43958  -0.43714  -0.43657  -0.43609
 Alpha  occ. eigenvalues --   -0.42884  -0.42755  -0.42203  -0.41362  -0.41044
 Alpha  occ. eigenvalues --   -0.40137  -0.39478  -0.39270  -0.38902  -0.38745
 Alpha  occ. eigenvalues --   -0.38304  -0.37103  -0.36406  -0.35728  -0.34404
 Alpha  occ. eigenvalues --   -0.34146  -0.33561  -0.33099  -0.32363  -0.32220
 Alpha  occ. eigenvalues --   -0.32070  -0.31664
 Alpha virt. eigenvalues --   -0.11528  -0.08730  -0.08302  -0.07358  -0.07215
 Alpha virt. eigenvalues --   -0.06960  -0.06210  -0.05627  -0.04806  -0.03765
 Alpha virt. eigenvalues --   -0.03211  -0.01488  -0.00652   0.00126   0.00229

 Mulliken charges:
               1
     1  N   -0.788683
     2  C   -0.077458
     3  C    0.647819
     4  O   -0.508393
     5  C   -0.398371
     6  C    0.133635
     7  C   -0.188121
     8  C   -0.191295
     9  C   -0.130979
    10  C   -0.138935
    11  C   -0.129561
    12  H    0.346195
    13  H    0.174617
    14  H    0.142184
    15  H    0.191556
    16  H    0.128675
    17  H    0.180149
    18  H    0.145697
    19  H    0.134076
    20  H    0.142488
    21  H    0.354450
    22  H    0.478810
    23  N   -0.632638
    24  C   -0.062732
    25  C    0.641002
    26  O   -0.523085
    27  C   -0.276037
    28  C   -0.081375
    29  C   -0.462504
    30  C   -0.444836
    31  H    0.325417
    32  H    0.212813
    33  H    0.161068
    34  H    0.119434
    35  H    0.137823
    36  H    0.173004
    37  H    0.142653
    38  H    0.153646
    39  H    0.148846
    40  H    0.138726
    41  H    0.156204
    42  N   -0.605586
    43  C   -0.050141
    44  C    0.679523
    45  O   -0.559679
    46  C   -0.401202
    47  C    0.637770
    48  N   -0.755838
    49  O   -0.514188
    50  H    0.322086
    51  H    0.195917
    52  H    0.175848
    53  H    0.190236
    54  H    0.354723
    55  H    0.347291
    56  N   -0.594523
    57  C   -0.042378
    58  C    0.643784
    59  O   -0.571597
    60  C   -0.322284
    61  C   -0.300513
    62  C   -0.163112
    63  N   -0.620336
    64  C    0.798954
    65  N   -0.753523
    66  N   -0.777650
    67  O   -0.575850
    68  H    0.368087
    69  H    0.171187
    70  H    0.178493
    71  H    0.223459
    72  H    0.174515
    73  H    0.174091
    74  H    0.176120
    75  H    0.167746
    76  H    0.408447
    77  H    0.377443
    78  H    0.384097
    79  H    0.368264
    80  H    0.414340
 Sum of Mulliken charges =   1.00000

 Dipole moment (field-independent basis, Debye):
    X=            -19.7856    Y=             66.0178    Z=            -32.8665  Tot=             76.3546
 Quadrupole moment (field-independent basis, Debye-Ang):
   XX=           -140.8647   YY=            818.6197   ZZ=             45.0609
   XY=           -301.7045   XZ=            133.7414   YZ=           -443.9718

 Normal termination of Gaussian 16 at Sat Jun 11 20:56:00 2022.
