 Gaussian 16, Revision C.01,
 Gaussian 16:  ES64L-G16RevC.01  3-Jul-2019

 ----------------------------------------------------------------------
 # B3LYP/6-31G* empiricaldispersion=gd3 guess=read geom=check nosymm in
 tegral(ultrafinegrid)
 ----------------------------------------------------------------------

 ------------------------------------------------------
 Candidate Structure: Conf:472 Charge calc in gas phase
 ------------------------------------------------------
 Structure from the checkpoint file:  "conf-472.chk"
 Charge =  1 Multiplicity = 1

                          Input orientation:
 ---------------------------------------------------------------------
 Center     Atomic      Atomic             Coordinates (Angstroms)
 Number     Number       Type             X           Y           Z
 ---------------------------------------------------------------------
      1          7           0       -2.931017    9.338053   -6.866475
      2          6           0       -3.531183    8.918426   -8.170911
      3          6           0       -2.562692    9.512874   -9.221655
      4          8           0       -1.365044    9.556133   -8.959144
      5          6           0       -4.998342    9.386627   -8.230067
      6          6           0       -5.809632    8.889900   -7.050295
      7          6           0       -6.455735    7.647738   -7.101255
      8          6           0       -5.873263    9.646189   -5.870451
      9          6           0       -7.157891    7.168634   -5.995179
     10          6           0       -6.568661    9.160703   -4.761362
     11          6           0       -7.214481    7.924806   -4.821777
     12          1           0       -3.017955   10.376857   -6.786444
     13          1           0       -3.477516    7.825855   -8.222792
     14          1           0       -5.435422    9.011432   -9.163061
     15          1           0       -5.010711   10.481639   -8.265457
     16          1           0       -6.417921    7.056699   -8.014140
     17          1           0       -5.362789   10.603861   -5.806458
     18          1           0       -7.662694    6.208451   -6.050469
     19          1           0       -6.605353    9.754091   -3.852380
     20          1           0       -7.761866    7.551902   -3.960871
     21          1           0       -3.390436    8.954190   -6.034791
     22          1           0       -1.920017    9.157077   -6.820823
     23          7           0       -3.086789   10.015336  -10.364075
     24          6           0       -2.241294   10.748921  -11.317743
     25          6           0       -1.537883   11.945203  -10.640129
     26          8           0       -0.420889   12.299225  -10.981521
     27          6           0       -3.098999   11.186633  -12.517567
     28          6           0       -2.361362   12.013671  -13.588998
     29          6           0       -1.129775   11.283133  -14.142972
     30          6           0       -3.342983   12.378746  -14.711687
     31          1           0       -4.080859    9.966572  -10.538370
     32          1           0       -1.430602   10.092299  -11.639969
     33          1           0       -3.510644   10.280933  -12.986085
     34          1           0       -3.952098   11.770712  -12.140994
     35          1           0       -2.016172   12.944253  -13.118791
     36          1           0       -0.691752   11.849579  -14.971952
     37          1           0       -0.357046   11.168201  -13.377590
     38          1           0       -1.400809   10.290519  -14.526790
     39          1           0       -2.858777   13.018521  -15.457147
     40          1           0       -3.699485   11.478525  -15.228614
     41          1           0       -4.219433   12.914525  -14.326860
     42          7           0       -2.276190   12.595673   -9.683564
     43          6           0       -1.605818   13.353072   -8.641927
     44          6           0       -2.120530   12.800692   -7.288361
     45          8           0       -3.095553   12.016538   -7.274098
     46          6           0       -1.806277   14.877647   -8.821196
     47          6           0       -0.689457   15.712434   -8.197354
     48          7           0       -0.492139   16.930979   -8.750862
     49          8           0       -0.017564   15.324283   -7.237316
     50          1           0       -3.106672   12.123248   -9.345213
     51          1           0       -0.533565   13.142222   -8.715663
     52          1           0       -1.857948   15.069638   -9.897469
     53          1           0       -2.765683   15.199876   -8.395487
     54          1           0        0.253530   17.508343   -8.385041
     55          1           0       -0.951906   17.223936   -9.600043
     56          7           0       -1.450840   13.189824   -6.206772
     57          6           0       -1.686489   12.737312   -4.828858
     58          6           0       -2.023346   11.215208   -4.804797
     59          8           0       -3.186939   10.856031   -4.466317
     60          6           0       -2.692005   13.627975   -4.075670
     61          6           0       -2.475771   13.703570   -2.547180
     62          6           0       -2.976560   12.528600   -1.687971
     63          7           0       -2.295614   11.247607   -1.936289
     64          6           0       -1.037136   10.950532   -1.605759
     65          7           0       -0.472737   11.508642   -0.513165
     66          7           0       -0.340665   10.087827   -2.356498
     67          8           0       -1.062506   10.441018   -5.070125
     68          1           0       -0.721850   13.893784   -6.372122
     69          1           0       -0.704133   12.821196   -4.349785
     70          1           0       -3.706193   13.288401   -4.309640
     71          1           0       -2.586725   14.647474   -4.464752
     72          1           0       -1.410320   13.870646   -2.333591
     73          1           0       -3.000831   14.591363   -2.172465
     74          1           0       -2.901164   12.788462   -0.626373
     75          1           0       -4.033506   12.336513   -1.887923
     76          1           0       -2.682993   10.754008   -2.751514
     77          1           0        0.499252   11.349555   -0.293893
     78          1           0       -1.050279   11.897465    0.217379
     79          1           0        0.545505    9.728873   -2.030509
     80          1           0       -0.560038    9.995061   -3.364691
 ---------------------------------------------------------------------

 SCF Done:  E(RB3LYP) =  -1866.74545381     A.U. after    2 cycles

 Alpha  occ. eigenvalues --  -19.22474 -19.22241 -19.21411 -19.19357 -19.18601
 Alpha  occ. eigenvalues --  -19.18462 -14.52054 -14.50117 -14.48104 -14.47740
 Alpha  occ. eigenvalues --  -14.46942 -14.45088 -14.45072 -14.43397 -10.45403
 Alpha  occ. eigenvalues --  -10.39740 -10.38930 -10.38924 -10.36747 -10.36476
 Alpha  occ. eigenvalues --  -10.36041 -10.33625 -10.32592 -10.31867 -10.31489
 Alpha  occ. eigenvalues --  -10.30522 -10.29351 -10.28925 -10.28705 -10.27459
 Alpha  occ. eigenvalues --  -10.27384 -10.27238 -10.27108 -10.27100 -10.27050
 Alpha  occ. eigenvalues --  -10.26953 -10.25752 -10.23516 -10.22799  -1.14909
 Alpha  occ. eigenvalues --   -1.14028  -1.13764  -1.12927  -1.11997  -1.11230
 Alpha  occ. eigenvalues --   -1.07718  -1.03565  -1.03213  -1.02678  -1.01911
 Alpha  occ. eigenvalues --   -1.01571  -1.00344  -0.99832  -0.94217  -0.89883
 Alpha  occ. eigenvalues --   -0.89320  -0.88225  -0.87029  -0.83945  -0.83642
 Alpha  occ. eigenvalues --   -0.82604  -0.81420  -0.78911  -0.76753  -0.76016
 Alpha  occ. eigenvalues --   -0.75004  -0.74229  -0.72783  -0.70969  -0.70163
 Alpha  occ. eigenvalues --   -0.69940  -0.69093  -0.68939  -0.67751  -0.67478
 Alpha  occ. eigenvalues --   -0.66940  -0.66673  -0.65966  -0.65485  -0.64155
 Alpha  occ. eigenvalues --   -0.63178  -0.63076  -0.62447  -0.62331  -0.61225
 Alpha  occ. eigenvalues --   -0.59879  -0.59337  -0.58947  -0.58475  -0.57731
 Alpha  occ. eigenvalues --   -0.56738  -0.56471  -0.55607  -0.55307  -0.54609
 Alpha  occ. eigenvalues --   -0.54368  -0.53988  -0.53617  -0.53507  -0.52891
 Alpha  occ. eigenvalues --   -0.52730  -0.52217  -0.51960  -0.51600  -0.50733
 Alpha  occ. eigenvalues --   -0.50336  -0.50149  -0.49922  -0.49491  -0.49380
 Alpha  occ. eigenvalues --   -0.49166  -0.48760  -0.48462  -0.47915  -0.47658
 Alpha  occ. eigenvalues --   -0.47000  -0.46665  -0.46096  -0.45582  -0.45308
 Alpha  occ. eigenvalues --   -0.45105  -0.44613  -0.44208  -0.44006  -0.43566
 Alpha  occ. eigenvalues --   -0.43238  -0.42750  -0.42624  -0.42230  -0.40779
 Alpha  occ. eigenvalues --   -0.39750  -0.39148  -0.38933  -0.37827  -0.37336
 Alpha  occ. eigenvalues --   -0.36794  -0.36345  -0.36266  -0.35885  -0.35307
 Alpha  occ. eigenvalues --   -0.34768  -0.33833  -0.33278  -0.32904  -0.32779
 Alpha  occ. eigenvalues --   -0.32343  -0.32111
 Alpha virt. eigenvalues --   -0.10294  -0.09351  -0.08781  -0.08536  -0.08067
 Alpha virt. eigenvalues --   -0.06982  -0.06569  -0.05700  -0.05580  -0.02738
 Alpha virt. eigenvalues --   -0.02464  -0.00786  -0.00247   0.00443   0.00531

 Mulliken charges:
               1
     1  N   -0.786753
     2  C   -0.087276
     3  C    0.643105
     4  O   -0.511148
     5  C   -0.403254
     6  C    0.132917
     7  C   -0.179675
     8  C   -0.206432
     9  C   -0.127557
    10  C   -0.128064
    11  C   -0.125475
    12  H    0.482111
    13  H    0.211255
    14  H    0.168869
    15  H    0.193908
    16  H    0.134388
    17  H    0.173029
    18  H    0.152602
    19  H    0.142809
    20  H    0.149837
    21  H    0.404382
    22  H    0.419407
    23  N   -0.657428
    24  C   -0.015088
    25  C    0.617467
    26  O   -0.505639
    27  C   -0.306763
    28  C   -0.076761
    29  C   -0.461799
    30  C   -0.445882
    31  H    0.348098
    32  H    0.205789
    33  H    0.152215
    34  H    0.135158
    35  H    0.144848
    36  H    0.154559
    37  H    0.177623
    38  H    0.137511
    39  H    0.157546
    40  H    0.146700
    41  H    0.139328
    42  N   -0.610771
    43  C   -0.060607
    44  C    0.621491
    45  O   -0.609138
    46  C   -0.378253
    47  C    0.631489
    48  N   -0.736825
    49  O   -0.531694
    50  H    0.343338
    51  H    0.220089
    52  H    0.189786
    53  H    0.189957
    54  H    0.361896
    55  H    0.356173
    56  N   -0.615360
    57  C    0.009858
    58  C    0.540228
    59  O   -0.609568
    60  C   -0.268865
    61  C   -0.280990
    62  C   -0.161454
    63  N   -0.602878
    64  C    0.775399
    65  N   -0.757539
    66  N   -0.779330
    67  O   -0.601179
    68  H    0.400964
    69  H    0.147458
    70  H    0.175765
    71  H    0.150126
    72  H    0.147824
    73  H    0.165723
    74  H    0.155181
    75  H    0.193238
    76  H    0.397602
    77  H    0.372329
    78  H    0.378179
    79  H    0.358148
    80  H    0.421741
 Sum of Mulliken charges =   1.00000

 Dipole moment (field-independent basis, Debye):
    X=            -13.1548    Y=             56.4243    Z=            -23.6994  Tot=             62.5972
 Quadrupole moment (field-independent basis, Debye-Ang):
   XX=           -174.5990   YY=            497.8331   ZZ=              1.8583
   XY=           -134.8743   XZ=            107.0735   YZ=           -289.1233

 Normal termination of Gaussian 16 at Sat Jun 11 20:56:43 2022.
