 Gaussian 16, Revision C.01,
 Gaussian 16:  ES64L-G16RevC.01  3-Jul-2019

 ----------------------------------------------------------------------
 # B3LYP/6-31G* empiricaldispersion=gd3 guess=read geom=check nosymm in
 tegral(ultrafinegrid)
 ----------------------------------------------------------------------

 -----------------------------------------------------
 Candidate Structure: Conf:60 Charge calc in gas phase
 -----------------------------------------------------
 Structure from the checkpoint file:  "conf-60.chk"
 Charge =  1 Multiplicity = 1

                          Input orientation:
 ---------------------------------------------------------------------
 Center     Atomic      Atomic             Coordinates (Angstroms)
 Number     Number       Type             X           Y           Z
 ---------------------------------------------------------------------
      1          7           0       -1.375070    9.883082   -7.440409
      2          6           0       -2.299323    8.865025   -8.030406
      3          6           0       -2.943258    9.609896   -9.224213
      4          8           0       -2.259214   10.408851   -9.855889
      5          6           0       -3.250864    8.344626   -6.935671
      6          6           0       -2.503689    7.797069   -5.736226
      7          6           0       -2.110662    6.452948   -5.693323
      8          6           0       -2.145995    8.648548   -4.680225
      9          6           0       -1.376004    5.963958   -4.612963
     10          6           0       -1.402397    8.159466   -3.604512
     11          6           0       -1.019219    6.817861   -3.566330
     12          1           0       -1.953953   10.646591   -7.022081
     13          1           0       -1.683764    8.047221   -8.419728
     14          1           0       -3.872473    7.556025   -7.376205
     15          1           0       -3.909206    9.165419   -6.630082
     16          1           0       -2.389119    5.783028   -6.504369
     17          1           0       -2.426625    9.698548   -4.704949
     18          1           0       -1.085474    4.917655   -4.586781
     19          1           0       -1.127213    8.831025   -2.796445
     20          1           0       -0.447576    6.436811   -2.724977
     21          1           0       -0.777760    9.538352   -6.682427
     22          1           0       -0.799865   10.352007   -8.151901
     23          7           0       -4.252839    9.389509   -9.487672
     24          6           0       -4.954548   10.199896  -10.491517
     25          6           0       -4.919520   11.704667  -10.140278
     26          8           0       -4.941443   12.552570  -11.016580
     27          6           0       -6.401604    9.718182  -10.665133
     28          6           0       -6.568679    8.259192  -11.136461
     29          6           0       -8.063499    7.922642  -11.239542
     30          6           0       -5.852378    7.993233  -12.467454
     31          1           0       -4.784389    8.732765   -8.934267
     32          1           0       -4.410723   10.130589  -11.435968
     33          1           0       -6.940001    9.865138   -9.717225
     34          1           0       -6.869989   10.389656  -11.394761
     35          1           0       -6.130659    7.590858  -10.377284
     36          1           0       -8.548919    8.547080  -11.999782
     37          1           0       -8.210720    6.875419  -11.524634
     38          1           0       -8.581633    8.089871  -10.287729
     39          1           0       -6.217305    8.673534  -13.247020
     40          1           0       -4.767454    8.123439  -12.388271
     41          1           0       -6.036369    6.968079  -12.806390
     42          7           0       -4.908784   12.000022   -8.800791
     43          6           0       -4.342961   13.254106   -8.337756
     44          6           0       -3.313368   12.891733   -7.237218
     45          8           0       -3.266482   11.719677   -6.800451
     46          6           0       -5.439617   14.247494   -7.882752
     47          6           0       -5.008201   15.709622   -7.976400
     48          7           0       -6.008685   16.604487   -8.144395
     49          8           0       -3.830823   16.069476   -7.883729
     50          1           0       -4.728609   11.236289   -8.159844
     51          1           0       -3.804431   13.708814   -9.176498
     52          1           0       -6.311105   14.074661   -8.521688
     53          1           0       -5.754677   14.038762   -6.851957
     54          1           0       -5.766056   17.582009   -8.238247
     55          1           0       -6.959649   16.326912   -8.336726
     56          7           0       -2.506404   13.872765   -6.843513
     57          6           0       -1.391100   13.748358   -5.895115
     58          6           0       -0.641269   12.398019   -6.111538
     59          8           0       -0.692023   11.521867   -5.202069
     60          6           0       -1.815059   14.021302   -4.439845
     61          6           0       -0.707041   14.615545   -3.541159
     62          6           0        0.360327   13.657108   -2.983023
     63          7           0        1.217237   13.027813   -4.000954
     64          6           0        2.152496   13.642309   -4.728242
     65          7           0        2.829330   14.692421   -4.215417
     66          7           0        2.424494   13.205856   -5.964581
     67          8           0        0.027696   12.313025   -7.178456
     68          1           0       -2.714500   14.797712   -7.238479
     69          1           0       -0.683672   14.522924   -6.213385
     70          1           0       -2.211347   13.095989   -4.009341
     71          1           0       -2.632829   14.750948   -4.464764
     72          1           0       -0.204154   15.437158   -4.071042
     73          1           0       -1.186133   15.070723   -2.665049
     74          1           0        0.981274   14.181972   -2.248756
     75          1           0       -0.114964   12.827573   -2.453847
     76          1           0        0.770569   12.206201   -4.429794
     77          1           0        3.485664   15.211087   -4.779638
     78          1           0        2.868041   14.836333   -3.217319
     79          1           0        3.235064   13.550221   -6.459352
     80          1           0        1.684134   12.735311   -6.515669
 ---------------------------------------------------------------------

 SCF Done:  E(RB3LYP) =  -1866.74465691     A.U. after    2 cycles

 Alpha  occ. eigenvalues --  -19.22463 -19.22228 -19.21332 -19.19099 -19.18570
 Alpha  occ. eigenvalues --  -19.18424 -14.52050 -14.50099 -14.48091 -14.47722
 Alpha  occ. eigenvalues --  -14.46903 -14.45039 -14.44996 -14.43214 -10.45387
 Alpha  occ. eigenvalues --  -10.39726 -10.38902 -10.38839 -10.36721 -10.36280
 Alpha  occ. eigenvalues --  -10.36033 -10.33605 -10.32552 -10.31724 -10.31466
 Alpha  occ. eigenvalues --  -10.30513 -10.29225 -10.28896 -10.28693 -10.27449
 Alpha  occ. eigenvalues --  -10.27351 -10.27101 -10.27095 -10.27085 -10.27032
 Alpha  occ. eigenvalues --  -10.26940 -10.26907 -10.24195 -10.24174  -1.14886
 Alpha  occ. eigenvalues --   -1.14018  -1.13751  -1.12844  -1.11954  -1.11035
 Alpha  occ. eigenvalues --   -1.07708  -1.03540  -1.03192  -1.02655  -1.01886
 Alpha  occ. eigenvalues --   -1.01546  -1.00211  -0.99741  -0.94206  -0.89981
 Alpha  occ. eigenvalues --   -0.89298  -0.88437  -0.87051  -0.84040  -0.83670
 Alpha  occ. eigenvalues --   -0.82593  -0.81747  -0.78875  -0.76684  -0.76062
 Alpha  occ. eigenvalues --   -0.75219  -0.74930  -0.72840  -0.70954  -0.70132
 Alpha  occ. eigenvalues --   -0.69994  -0.69058  -0.68917  -0.67738  -0.67438
 Alpha  occ. eigenvalues --   -0.66927  -0.66648  -0.65894  -0.65464  -0.64162
 Alpha  occ. eigenvalues --   -0.63904  -0.63087  -0.62732  -0.62246  -0.60967
 Alpha  occ. eigenvalues --   -0.59871  -0.59304  -0.58936  -0.58394  -0.57644
 Alpha  occ. eigenvalues --   -0.57054  -0.56360  -0.55540  -0.55279  -0.54539
 Alpha  occ. eigenvalues --   -0.54318  -0.53981  -0.53611  -0.53498  -0.53000
 Alpha  occ. eigenvalues --   -0.52748  -0.52192  -0.51953  -0.51669  -0.51164
 Alpha  occ. eigenvalues --   -0.50485  -0.50263  -0.50132  -0.49622  -0.49214
 Alpha  occ. eigenvalues --   -0.49021  -0.48684  -0.48468  -0.47916  -0.47250
 Alpha  occ. eigenvalues --   -0.46854  -0.46506  -0.46196  -0.45728  -0.45563
 Alpha  occ. eigenvalues --   -0.45380  -0.44936  -0.44654  -0.44224  -0.43975
 Alpha  occ. eigenvalues --   -0.43211  -0.42994  -0.42658  -0.42216  -0.40761
 Alpha  occ. eigenvalues --   -0.40257  -0.40136  -0.39848  -0.37806  -0.37353
 Alpha  occ. eigenvalues --   -0.36734  -0.36351  -0.36268  -0.35838  -0.35246
 Alpha  occ. eigenvalues --   -0.34740  -0.33681  -0.33246  -0.32886  -0.32729
 Alpha  occ. eigenvalues --   -0.32151  -0.32079
 Alpha virt. eigenvalues --   -0.10274  -0.09346  -0.08779  -0.08525  -0.08066
 Alpha virt. eigenvalues --   -0.06898  -0.06535  -0.05648  -0.05314  -0.03014
 Alpha virt. eigenvalues --   -0.02716  -0.00652  -0.00364   0.00461   0.00570

 Mulliken charges:
               1
     1  N   -0.786767
     2  C   -0.086956
     3  C    0.638973
     4  O   -0.510646
     5  C   -0.404199
     6  C    0.133244
     7  C   -0.179580
     8  C   -0.206773
     9  C   -0.127625
    10  C   -0.128076
    11  C   -0.125451
    12  H    0.482550
    13  H    0.211106
    14  H    0.168740
    15  H    0.194391
    16  H    0.134098
    17  H    0.173514
    18  H    0.152447
    19  H    0.142889
    20  H    0.149779
    21  H    0.404482
    22  H    0.419178
    23  N   -0.650064
    24  C   -0.024094
    25  C    0.604552
    26  O   -0.503346
    27  C   -0.306006
    28  C   -0.077031
    29  C   -0.443489
    30  C   -0.451929
    31  H    0.350247
    32  H    0.205601
    33  H    0.137892
    34  H    0.180459
    35  H    0.108261
    36  H    0.155371
    37  H    0.157261
    38  H    0.143642
    39  H    0.158242
    40  H    0.148313
    41  H    0.158131
    42  N   -0.613363
    43  C   -0.056743
    44  C    0.620536
    45  O   -0.609769
    46  C   -0.377585
    47  C    0.631377
    48  N   -0.736504
    49  O   -0.532549
    50  H    0.343622
    51  H    0.218200
    52  H    0.191494
    53  H    0.189633
    54  H    0.361641
    55  H    0.356521
    56  N   -0.615397
    57  C    0.010306
    58  C    0.539777
    59  O   -0.609492
    60  C   -0.269035
    61  C   -0.281057
    62  C   -0.161565
    63  N   -0.603010
    64  C    0.775481
    65  N   -0.757615
    66  N   -0.779550
    67  O   -0.601317
    68  H    0.401141
    69  H    0.147063
    70  H    0.175797
    71  H    0.150579
    72  H    0.147809
    73  H    0.165770
    74  H    0.155186
    75  H    0.193174
    76  H    0.397715
    77  H    0.372302
    78  H    0.378172
    79  H    0.358130
    80  H    0.421798
 Sum of Mulliken charges =   1.00000

 Dipole moment (field-independent basis, Debye):
    X=             -6.4292    Y=             58.7056    Z=            -26.9170  Tot=             64.9015
 Quadrupole moment (field-independent basis, Debye-Ang):
   XX=           -117.9865   YY=            569.9358   ZZ=            -61.8250
   XY=            -58.6725   XZ=             77.3347   YZ=           -301.4269

 Normal termination of Gaussian 16 at Sat Jun 11 20:56:42 2022.
