 Gaussian 16, Revision C.01,
 Gaussian 16:  ES64L-G16RevC.01  3-Jul-2019

 ----------------------------------------------------------------------
 # B3LYP/6-31G* empiricaldispersion=gd3 guess=read geom=check nosymm in
 tegral(ultrafinegrid)
 ----------------------------------------------------------------------

 ------------------------------------------------------
 Candidate Structure: Conf:950 Charge calc in gas phase
 ------------------------------------------------------
 Structure from the checkpoint file:  "conf-950.chk"
 Charge =  1 Multiplicity = 1

                          Input orientation:
 ---------------------------------------------------------------------
 Center     Atomic      Atomic             Coordinates (Angstroms)
 Number     Number       Type             X           Y           Z
 ---------------------------------------------------------------------
      1          7           0       -0.871721   14.379528   -7.210663
      2          6           0       -1.298912   14.006692   -5.813738
      3          6           0       -0.284063   12.918720   -5.391957
      4          8           0        0.903657   13.185070   -5.554344
      5          6           0       -2.806080   13.725156   -5.751638
      6          6           0       -3.614700   14.969365   -6.065774
      7          6           0       -3.966810   15.857526   -5.039707
      8          6           0       -3.973826   15.286103   -7.385194
      9          6           0       -4.664139   17.032576   -5.320092
     10          6           0       -4.668388   16.466434   -7.665947
     11          6           0       -5.016082   17.341520   -6.636396
     12          1           0       -1.347770   15.226498   -7.533888
     13          1           0       -1.069275   14.871646   -5.181677
     14          1           0       -3.024445   13.396248   -4.729588
     15          1           0       -3.056586   12.892688   -6.413817
     16          1           0       -3.699633   15.622378   -4.011550
     17          1           0       -3.712982   14.612373   -8.197891
     18          1           0       -4.934743   17.705490   -4.511396
     19          1           0       -4.939595   16.698232   -8.692691
     20          1           0       -5.558806   18.256614   -6.855124
     21          1           0        0.147259   14.512100   -7.198188
     22          1           0       -1.113592   13.553969   -7.875378
     23          7           0       -0.772961   11.796392   -4.818459
     24          6           0        0.117777   10.688639   -4.427673
     25          6           0        0.028159    9.635072   -5.545931
     26          8           0        0.898183    9.513279   -6.388687
     27          6           0       -0.221961   10.186662   -3.017249
     28          6           0        0.555151    8.927147   -2.586503
     29          6           0        2.074686    9.112560   -2.718026
     30          6           0        0.167572    8.542709   -1.152076
     31          1           0       -1.738691   11.549128   -5.022790
     32          1           0        1.132542   11.082105   -4.466247
     33          1           0       -0.016523   11.007560   -2.317693
     34          1           0       -1.302434    9.991234   -2.940722
     35          1           0        0.253736    8.105358   -3.252249
     36          1           0        2.383370    9.254004   -3.759360
     37          1           0        2.414008    9.981368   -2.139107
     38          1           0        2.603220    8.232336   -2.336179
     39          1           0        0.465893    9.326549   -0.444324
     40          1           0       -0.914739    8.395086   -1.051865
     41          1           0        0.663385    7.614343   -0.848194
     42          7           0       -1.150989    8.900870   -5.568096
     43          6           0       -1.708282    8.571418   -6.869736
     44          6           0       -2.655595    9.733446   -7.272142
     45          8           0       -3.086156   10.521074   -6.417572
     46          6           0       -2.393855    7.192903   -6.866430
     47          6           0       -2.462762    6.558914   -8.257224
     48          7           0       -2.800689    5.245935   -8.274708
     49          8           0       -2.243188    7.184152   -9.295869
     50          1           0       -1.861550    9.214977   -4.915840
     51          1           0       -0.869770    8.544285   -7.569253
     52          1           0       -1.822824    6.537752   -6.198458
     53          1           0       -3.409554    7.254324   -6.452772
     54          1           0       -2.807173    4.765548   -9.164528
     55          1           0       -2.868329    4.692858   -7.433023
     56          7           0       -2.949891    9.804136   -8.582948
     57          6           0       -3.551768   10.970933   -9.205441
     58          6           0       -2.624943   12.217994   -9.126882
     59          8           0       -2.986295   13.234372   -9.810150
     60          6           0       -4.989666   11.271041   -8.661934
     61          6           0       -6.126300   11.011883   -9.674270
     62          6           0       -6.457910   12.216557  -10.571866
     63          7           0       -5.261250   12.789587  -11.195731
     64          6           0       -4.762444   12.511955  -12.395303
     65          7           0       -5.528343   12.060621  -13.407826
     66          7           0       -3.440085   12.675185  -12.586742
     67          8           0       -1.607306   12.167920   -8.401379
     68          1           0       -2.557403    9.064625   -9.165422
     69          1           0       -3.626022   10.726802  -10.270603
     70          1           0       -5.047312   12.303165   -8.294383
     71          1           0       -5.140852   10.642441   -7.784542
     72          1           0       -5.878638   10.142650  -10.297625
     73          1           0       -7.047662   10.756316   -9.137071
     74          1           0       -7.193320   11.941316  -11.333779
     75          1           0       -6.907760   13.015242   -9.973295
     76          1           0       -4.524457   13.112108  -10.530948
     77          1           0       -5.115277   11.754263  -14.275818
     78          1           0       -6.534115   12.112483  -13.362591
     79          1           0       -3.066366   12.838637  -13.510556
     80          1           0       -2.889021   12.961852  -11.773294
 ---------------------------------------------------------------------

 SCF Done:  E(RB3LYP) =  -1866.74716057     A.U. after    3 cycles

 Alpha  occ. eigenvalues --  -19.21053 -19.20947 -19.20926 -19.20731 -19.20602
 Alpha  occ. eigenvalues --  -19.19243 -14.52162 -14.50738 -14.49110 -14.48327
 Alpha  occ. eigenvalues --  -14.45012 -14.44777 -14.43787 -14.43102 -10.46118
 Alpha  occ. eigenvalues --  -10.38630 -10.38477 -10.38270 -10.37228 -10.36011
 Alpha  occ. eigenvalues --  -10.34962 -10.34472 -10.32537 -10.31472 -10.30407
 Alpha  occ. eigenvalues --  -10.29459 -10.29071 -10.28771 -10.28507 -10.28461
 Alpha  occ. eigenvalues --  -10.27304 -10.27236 -10.27107 -10.27025 -10.26979
 Alpha  occ. eigenvalues --  -10.25981 -10.25341 -10.23161 -10.22808  -1.14832
 Alpha  occ. eigenvalues --   -1.14167  -1.13103  -1.12718  -1.12072  -1.10884
 Alpha  occ. eigenvalues --   -1.07266  -1.05272  -1.03730  -1.02706  -1.01633
 Alpha  occ. eigenvalues --   -1.00858  -0.99888  -0.99525  -0.94020  -0.89983
 Alpha  occ. eigenvalues --   -0.88999  -0.87715  -0.86564  -0.84166  -0.83076
 Alpha  occ. eigenvalues --   -0.82596  -0.80688  -0.79034  -0.76606  -0.75253
 Alpha  occ. eigenvalues --   -0.75231  -0.74006  -0.72128  -0.71709  -0.71280
 Alpha  occ. eigenvalues --   -0.68959  -0.68536  -0.67799  -0.67451  -0.67288
 Alpha  occ. eigenvalues --   -0.67133  -0.66518  -0.65498  -0.64945  -0.63777
 Alpha  occ. eigenvalues --   -0.63391  -0.63136  -0.63009  -0.62043  -0.61155
 Alpha  occ. eigenvalues --   -0.60383  -0.59714  -0.58885  -0.58232  -0.57420
 Alpha  occ. eigenvalues --   -0.56911  -0.55593  -0.55424  -0.54948  -0.54757
 Alpha  occ. eigenvalues --   -0.54170  -0.53818  -0.53602  -0.53545  -0.53143
 Alpha  occ. eigenvalues --   -0.52718  -0.51941  -0.51430  -0.51244  -0.50680
 Alpha  occ. eigenvalues --   -0.50407  -0.50213  -0.49908  -0.49649  -0.49055
 Alpha  occ. eigenvalues --   -0.48849  -0.48337  -0.47788  -0.47387  -0.47238
 Alpha  occ. eigenvalues --   -0.46326  -0.46208  -0.45772  -0.45393  -0.45269
 Alpha  occ. eigenvalues --   -0.44727  -0.44347  -0.44033  -0.43862  -0.43717
 Alpha  occ. eigenvalues --   -0.42926  -0.42686  -0.42317  -0.41894  -0.41357
 Alpha  occ. eigenvalues --   -0.39417  -0.38908  -0.38638  -0.38481  -0.37422
 Alpha  occ. eigenvalues --   -0.36785  -0.36217  -0.36014  -0.35248  -0.35005
 Alpha  occ. eigenvalues --   -0.34707  -0.34436  -0.33548  -0.33333  -0.32788
 Alpha  occ. eigenvalues --   -0.32567  -0.31265
 Alpha virt. eigenvalues --   -0.10517  -0.08879  -0.08689  -0.08457  -0.07356
 Alpha virt. eigenvalues --   -0.06712  -0.06502  -0.05948  -0.05324  -0.03075
 Alpha virt. eigenvalues --   -0.01982  -0.00551  -0.00368  -0.00137   0.00159

 Mulliken charges:
               1
     1  N   -0.768088
     2  C   -0.098325
     3  C    0.641173
     4  O   -0.515026
     5  C   -0.422923
     6  C    0.137073
     7  C   -0.179845
     8  C   -0.243732
     9  C   -0.125620
    10  C   -0.139309
    11  C   -0.126560
    12  H    0.389979
    13  H    0.208970
    14  H    0.175240
    15  H    0.224208
    16  H    0.138466
    17  H    0.177493
    18  H    0.153066
    19  H    0.136788
    20  H    0.150026
    21  H    0.403591
    22  H    0.444016
    23  N   -0.638153
    24  C   -0.083544
    25  C    0.603041
    26  O   -0.479090
    27  C   -0.266754
    28  C   -0.082937
    29  C   -0.461548
    30  C   -0.444474
    31  H    0.380428
    32  H    0.215905
    33  H    0.156060
    34  H    0.121642
    35  H    0.136975
    36  H    0.167856
    37  H    0.146436
    38  H    0.154751
    39  H    0.148687
    40  H    0.138374
    41  H    0.154317
    42  N   -0.588658
    43  C   -0.084502
    44  C    0.630420
    45  O   -0.571388
    46  C   -0.389193
    47  C    0.624986
    48  N   -0.740003
    49  O   -0.527607
    50  H    0.325599
    51  H    0.221266
    52  H    0.193367
    53  H    0.184728
    54  H    0.358456
    55  H    0.353581
    56  N   -0.609447
    57  C   -0.048768
    58  C    0.633217
    59  O   -0.619530
    60  C   -0.297408
    61  C   -0.274298
    62  C   -0.170919
    63  N   -0.609472
    64  C    0.779266
    65  N   -0.759617
    66  N   -0.778224
    67  O   -0.566285
    68  H    0.387727
    69  H    0.150420
    70  H    0.160297
    71  H    0.193340
    72  H    0.155479
    73  H    0.168479
    74  H    0.154482
    75  H    0.191953
    76  H    0.413063
    77  H    0.376592
    78  H    0.380203
    79  H    0.362900
    80  H    0.406866
 Sum of Mulliken charges =   1.00000

 Dipole moment (field-independent basis, Debye):
    X=            -22.3040    Y=             56.0563    Z=            -46.1289  Tot=             75.9451
 Quadrupole moment (field-independent basis, Debye-Ang):
   XX=           -127.5822   YY=            508.7754   ZZ=            306.1871
   XY=           -256.2956   XZ=            236.5787   YZ=           -548.9368

 Normal termination of Gaussian 16 at Sat Jun 11 20:56:41 2022.
