 Gaussian 16, Revision C.01,
 Gaussian 16:  ES64L-G16RevC.01  3-Jul-2019

 ----------------------------------------------------------------------
 # B3LYP/6-31G* empiricaldispersion=gd3 guess=read geom=check nosymm in
 tegral(ultrafinegrid)
 ----------------------------------------------------------------------

 ------------------------------------------------------
 Candidate Structure: Conf:669 Charge calc in gas phase
 ------------------------------------------------------
 Structure from the checkpoint file:  "conf-669.chk"
 Charge =  1 Multiplicity = 1

                          Input orientation:
 ---------------------------------------------------------------------
 Center     Atomic      Atomic             Coordinates (Angstroms)
 Number     Number       Type             X           Y           Z
 ---------------------------------------------------------------------
      1          7           0       -2.077431   13.567201   -6.996560
      2          6           0       -2.299086   13.783283   -8.462164
      3          6           0       -3.791584   13.445009   -8.667108
      4          8           0       -4.565182   13.623008   -7.728109
      5          6           0       -1.272211   12.987062   -9.283862
      6          6           0        0.144248   13.272499   -8.829638
      7          6           0        0.788046   14.459046   -9.205968
      8          6           0        0.807078   12.378665   -7.977869
      9          6           0        2.073390   14.745877   -8.745686
     10          6           0        2.096357   12.662714   -7.521766
     11          6           0        2.730047   13.846679   -7.902225
     12          1           0       -2.912169   13.898609   -6.492281
     13          1           0       -2.168629   14.856663   -8.641590
     14          1           0       -1.387436   13.272961  -10.336475
     15          1           0       -1.498062   11.921599   -9.189787
     16          1           0        0.286481   15.156210   -9.874333
     17          1           0        0.308679   11.456051   -7.687562
     18          1           0        2.564493   15.664892   -9.051926
     19          1           0        2.604632   11.960920   -6.868259
     20          1           0        3.733533   14.065617   -7.549404
     21          1           0       -1.981082   12.556884   -6.725874
     22          1           0       -1.239610   14.031061   -6.641350
     23          7           0       -4.172087   12.939952   -9.859290
     24          6           0       -5.534688   12.416387  -10.056166
     25          6           0       -5.893559   11.406015   -8.945723
     26          8           0       -7.032540   11.311275   -8.515458
     27          6           0       -5.642389   11.807246  -11.463963
     28          6           0       -7.002659   11.162249  -11.796263
     29          6           0       -8.171322   12.142038  -11.617939
     30          6           0       -6.960923   10.599526  -13.224074
     31          1           0       -3.489258   12.787543  -10.588787
     32          1           0       -6.244936   13.236682   -9.933797
     33          1           0       -5.435778   12.602720  -12.194705
     34          1           0       -4.851664   11.050719  -11.578176
     35          1           0       -7.156742   10.325408  -11.101726
     36          1           0       -8.011962   13.055848  -12.205792
     37          1           0       -9.105892   11.686602  -11.962805
     38          1           0       -8.306109   12.415438  -10.567498
     39          1           0       -6.830993   11.404473  -13.958810
     40          1           0       -6.137333    9.887189  -13.356192
     41          1           0       -7.895174   10.080679  -13.463365
     42          7           0       -4.859011   10.625064   -8.507100
     43          6           0       -4.879756   10.111830   -7.150759
     44          6           0       -3.450310   10.317854   -6.574244
     45          8           0       -2.559430   10.825369   -7.292769
     46          6           0       -5.402544    8.652228   -7.108408
     47          6           0       -6.099555    8.302938   -5.796850
     48          7           0       -7.157519    7.467378   -5.891610
     49          8           0       -5.711512    8.733136   -4.706001
     50          1           0       -3.921570   10.865914   -8.808207
     51          1           0       -5.568680   10.731530   -6.563388
     52          1           0       -6.094707    8.539876   -7.947136
     53          1           0       -4.583548    7.938927   -7.266158
     54          1           0       -7.659626    7.234691   -5.044590
     55          1           0       -7.566345    7.207422   -6.776693
     56          7           0       -3.299426    9.935258   -5.308789
     57          6           0       -2.078754    9.929856   -4.495772
     58          6           0       -1.598757   11.321556   -4.007112
     59          8           0       -1.336290   12.211449   -4.911261
     60          6           0       -0.919418    9.178405   -5.188821
     61          6           0        0.326334    8.999407   -4.281145
     62          6           0        1.542221    9.838738   -4.706353
     63          7           0        1.309548   11.286152   -4.618251
     64          6           0        1.500344   12.054318   -3.535972
     65          7           0        2.393964   11.723963   -2.588443
     66          7           0        0.842714   13.225351   -3.477759
     67          8           0       -1.355023   11.433067   -2.801291
     68          1           0       -4.145622    9.545970   -4.868863
     69          1           0       -2.350169    9.381985   -3.590925
     70          1           0       -0.664932    9.708524   -6.112703
     71          1           0       -1.298952    8.197389   -5.494689
     72          1           0        0.076455    9.245209   -3.242478
     73          1           0        0.644985    7.950935   -4.293933
     74          1           0        2.421874    9.570553   -4.113314
     75          1           0        1.806256    9.627210   -5.748344
     76          1           0        0.519982   11.619831   -5.179778
     77          1           0        2.417745   12.221429   -1.711095
     78          1           0        2.933928   10.875143   -2.645954
     79          1           0        0.868911   13.726950   -2.599442
     80          1           0       -0.096357   13.174653   -3.916373
 ---------------------------------------------------------------------

 SCF Done:  E(RB3LYP) =  -1866.74297401     A.U. after    2 cycles

 Alpha  occ. eigenvalues --  -19.23643 -19.22261 -19.21152 -19.19851 -19.18945
 Alpha  occ. eigenvalues --  -19.17423 -14.53949 -14.49775 -14.48011 -14.48009
 Alpha  occ. eigenvalues --  -14.46558 -14.44889 -14.44695 -14.43568 -10.44815
 Alpha  occ. eigenvalues --  -10.40995 -10.38818 -10.38645 -10.37392 -10.36921
 Alpha  occ. eigenvalues --  -10.35823 -10.34193 -10.32744 -10.32583 -10.31629
 Alpha  occ. eigenvalues --  -10.31018 -10.30440 -10.29232 -10.29181 -10.29140
 Alpha  occ. eigenvalues --  -10.28985 -10.28872 -10.28715 -10.28681 -10.28031
 Alpha  occ. eigenvalues --  -10.27853 -10.26274 -10.23941 -10.23280  -1.16185
 Alpha  occ. eigenvalues --   -1.13657  -1.13459  -1.12683  -1.11745  -1.11159
 Alpha  occ. eigenvalues --   -1.09249  -1.04309  -1.03264  -1.02201  -1.01605
 Alpha  occ. eigenvalues --   -1.01112  -1.00696  -0.99622  -0.96025  -0.91125
 Alpha  occ. eigenvalues --   -0.89556  -0.89106  -0.87031  -0.85058  -0.84502
 Alpha  occ. eigenvalues --   -0.83811  -0.82353  -0.78517  -0.77524  -0.76517
 Alpha  occ. eigenvalues --   -0.75267  -0.74690  -0.73311  -0.71116  -0.70748
 Alpha  occ. eigenvalues --   -0.70582  -0.70164  -0.69385  -0.68808  -0.68403
 Alpha  occ. eigenvalues --   -0.67262  -0.66538  -0.66428  -0.65706  -0.64179
 Alpha  occ. eigenvalues --   -0.63432  -0.63215  -0.62269  -0.62031  -0.61053
 Alpha  occ. eigenvalues --   -0.60682  -0.60015  -0.59383  -0.58473  -0.58165
 Alpha  occ. eigenvalues --   -0.57854  -0.56972  -0.56077  -0.56034  -0.55493
 Alpha  occ. eigenvalues --   -0.55427  -0.54485  -0.53894  -0.53721  -0.53574
 Alpha  occ. eigenvalues --   -0.53066  -0.52584  -0.52178  -0.51957  -0.51906
 Alpha  occ. eigenvalues --   -0.51221  -0.50805  -0.50603  -0.50206  -0.50032
 Alpha  occ. eigenvalues --   -0.49793  -0.49392  -0.48746  -0.48170  -0.47605
 Alpha  occ. eigenvalues --   -0.47238  -0.46635  -0.46210  -0.46141  -0.45910
 Alpha  occ. eigenvalues --   -0.45568  -0.44722  -0.44659  -0.44474  -0.44318
 Alpha  occ. eigenvalues --   -0.44059  -0.43894  -0.43356  -0.43010  -0.40304
 Alpha  occ. eigenvalues --   -0.40226  -0.39684  -0.39439  -0.38151  -0.37796
 Alpha  occ. eigenvalues --   -0.37460  -0.37249  -0.36533  -0.36056  -0.35149
 Alpha  occ. eigenvalues --   -0.35107  -0.34641  -0.34181  -0.34081  -0.33038
 Alpha  occ. eigenvalues --   -0.32689  -0.30639
 Alpha virt. eigenvalues --   -0.11127  -0.10417  -0.09960  -0.09556  -0.07979
 Alpha virt. eigenvalues --   -0.06798  -0.06249  -0.05954  -0.04516  -0.04043
 Alpha virt. eigenvalues --   -0.02857  -0.02539  -0.01850  -0.00639  -0.00031

 Mulliken charges:
               1
     1  N   -0.769815
     2  C   -0.091495
     3  C    0.655397
     4  O   -0.521898
     5  C   -0.400291
     6  C    0.127149
     7  C   -0.185962
     8  C   -0.213065
     9  C   -0.125791
    10  C   -0.128260
    11  C   -0.125913
    12  H    0.410847
    13  H    0.210696
    14  H    0.171688
    15  H    0.207719
    16  H    0.140129
    17  H    0.159553
    18  H    0.159249
    19  H    0.146034
    20  H    0.154461
    21  H    0.479276
    22  H    0.397256
    23  N   -0.654435
    24  C   -0.014944
    25  C    0.618274
    26  O   -0.511726
    27  C   -0.308501
    28  C   -0.076870
    29  C   -0.462859
    30  C   -0.446159
    31  H    0.349342
    32  H    0.206976
    33  H    0.152481
    34  H    0.136506
    35  H    0.145039
    36  H    0.138265
    37  H    0.156262
    38  H    0.177355
    39  H    0.147153
    40  H    0.140432
    41  H    0.159083
    42  N   -0.612492
    43  C   -0.050236
    44  C    0.605852
    45  O   -0.614299
    46  C   -0.373267
    47  C    0.632097
    48  N   -0.735361
    49  O   -0.528611
    50  H    0.342667
    51  H    0.215297
    52  H    0.187127
    53  H    0.187198
    54  H    0.363259
    55  H    0.357520
    56  N   -0.626430
    57  C   -0.018916
    58  C    0.589892
    59  O   -0.677961
    60  C   -0.314624
    61  C   -0.277273
    62  C   -0.183787
    63  N   -0.601212
    64  C    0.786441
    65  N   -0.760477
    66  N   -0.744736
    67  O   -0.537013
    68  H    0.410305
    69  H    0.174908
    70  H    0.172777
    71  H    0.159192
    72  H    0.185269
    73  H    0.163999
    74  H    0.153593
    75  H    0.181294
    76  H    0.387273
    77  H    0.377172
    78  H    0.376862
    79  H    0.350120
    80  H    0.387942
 Sum of Mulliken charges =   1.00000

 Dipole moment (field-independent basis, Debye):
    X=             -2.3694    Y=             55.0280    Z=            -33.2265  Tot=             64.3249
 Quadrupole moment (field-independent basis, Debye-Ang):
   XX=           -166.1440   YY=            453.0058   ZZ=             55.9544
   XY=              4.8412   XZ=             69.0495   YZ=           -390.3357

 Normal termination of Gaussian 16 at Sat Jun 11 20:56:47 2022.
