 Gaussian 16, Revision C.01,
 Gaussian 16:  ES64L-G16RevC.01  3-Jul-2019

 ----------------------------------------------------------------------
 # B3LYP/6-31G* empiricaldispersion=gd3 guess=read geom=check nosymm in
 tegral(ultrafinegrid)
 ----------------------------------------------------------------------

 ------------------------------------------------------
 Candidate Structure: Conf:234 Charge calc in gas phase
 ------------------------------------------------------
 Structure from the checkpoint file:  "conf-234.chk"
 Charge =  1 Multiplicity = 1

                          Input orientation:
 ---------------------------------------------------------------------
 Center     Atomic      Atomic             Coordinates (Angstroms)
 Number     Number       Type             X           Y           Z
 ---------------------------------------------------------------------
      1          7           0       -5.106979    1.513047   -8.900163
      2          6           0       -5.107745    0.095891   -9.418782
      3          6           0       -6.588751   -0.201754   -9.696230
      4          8           0       -7.223090    0.668329  -10.295972
      5          6           0       -4.356562   -0.797093   -8.441211
      6          6           0       -2.912750   -0.347223   -8.222119
      7          7           0       -2.099516   -1.277129   -7.683748
      8          8           0       -2.544721    0.803509   -8.481806
      9          1           0       -5.668893    1.519402   -8.021264
     10          1           0       -4.602214    0.111265  -10.389236
     11          1           0       -4.863474   -0.754533   -7.475551
     12          1           0       -4.389226   -1.830025   -8.798275
     13          1           0       -1.139427   -1.027722   -7.483089
     14          1           0       -2.423287   -2.207442   -7.453734
     15          1           0       -4.113212    1.769686   -8.730511
     16          1           0       -5.573153    2.116644   -9.586236
     17          7           0       -7.115783   -1.346277   -9.228701
     18          6           0       -8.395666   -1.846880   -9.720772
     19          6           0       -9.378033   -2.151005   -8.571830
     20          8           0       -9.923390   -3.256743   -8.532240
     21          6           0       -8.152625   -3.098877  -10.606937
     22          6           0       -6.937225   -2.891491  -11.482577
     23          6           0       -6.990052   -2.057069  -12.605636
     24          6           0       -5.698235   -3.428257  -11.102042
     25          6           0       -5.832172   -1.753738  -13.324776
     26          6           0       -4.537379   -3.128206  -11.818351
     27          6           0       -4.600736   -2.282568  -12.929423
     28          1           0       -6.548367   -2.014573   -8.716600
     29          1           0       -8.819361   -1.038686  -10.324763
     30          1           0       -8.017427   -3.966043   -9.954569
     31          1           0       -9.057198   -3.287071  -11.192763
     32          1           0       -7.941975   -1.629976  -12.912247
     33          1           0       -5.645073   -4.082250  -10.233416
     34          1           0       -5.892240   -1.106504  -14.195201
     35          1           0       -3.587750   -3.564122  -11.518476
     36          1           0       -3.701252   -2.052277  -13.493421
     37          7           0       -9.664829   -1.180581   -7.654426
     38          6           0       -8.925772    0.051032   -7.404890
     39          6           0       -7.598576   -0.172692   -6.642347
     40          8           0       -6.664493    0.648522   -6.758681
     41          6           0       -9.797749    1.108801   -6.703655
     42          6           0      -10.290943    0.687397   -5.316900
     43          7           0      -10.934643    1.653585   -4.615745
     44          8           0      -10.115607   -0.445207   -4.878505
     45          1           0      -10.297962   -1.490164   -6.911386
     46          1           0       -8.634494    0.494205   -8.359142
     47          1           0      -10.661898    1.328111   -7.342622
     48          1           0       -9.214380    2.033638   -6.623183
     49          1           0      -11.325255    1.413203   -3.714535
     50          1           0      -11.113988    2.574755   -4.987302
     51          7           0       -7.514331   -1.279025   -5.893271
     52          6           0       -6.292309   -1.724515   -5.267856
     53          6           0       -5.587220   -2.743289   -6.183700
     54          8           0       -6.046143   -3.194327   -7.210189
     55          6           0       -6.493299   -2.250669   -3.815629
     56          6           0       -7.809274   -2.991278   -3.512899
     57          6           0       -8.209151   -4.126476   -4.480605
     58          7           0       -9.174898   -3.646341   -5.486099
     59          6           0      -10.516895   -3.539887   -5.047304
     60          7           0      -10.775477   -3.663759   -3.800952
     61          7           0      -11.396877   -3.189521   -6.072069
     62          8           0       -4.319340   -3.068354   -5.832459
     63          1           0       -4.087848   -2.686481   -4.967291
     64          1           0       -8.322415   -1.915367   -5.824694
     65          1           0       -5.620377   -0.858210   -5.224978
     66          1           0       -5.643746   -2.902219   -3.565235
     67          1           0       -6.425508   -1.389603   -3.142828
     68          1           0       -7.718922   -3.396604   -2.499690
     69          1           0       -8.632603   -2.274146   -3.471842
     70          1           0       -7.342268   -4.514191   -5.027710
     71          1           0       -8.642313   -4.953563   -3.910176
     72          1           0       -9.090672   -4.100903   -6.391466
     73          1           0      -11.760892   -3.488325   -3.603247
     74          1           0      -12.373280   -3.331398   -5.844829
     75          1           0      -11.149955   -3.501470   -7.010864
 ---------------------------------------------------------------------

 SCF Done:  E(RB3LYP) =  -1917.48955326     A.U. after    1 cycles

 Alpha  occ. eigenvalues --  -19.33044 -19.27095 -19.25066 -19.24397 -19.24256
 Alpha  occ. eigenvalues --  -19.22472 -19.21571 -14.55935 -14.48478 -14.48074
 Alpha  occ. eigenvalues --  -14.46922 -14.45929 -14.45605 -14.42901 -14.41602
 Alpha  occ. eigenvalues --  -14.35720 -10.45139 -10.42673 -10.41717 -10.40965
 Alpha  occ. eigenvalues --  -10.39761 -10.39382 -10.38705 -10.36195 -10.35343
 Alpha  occ. eigenvalues --  -10.35007 -10.34106 -10.33538 -10.31112 -10.30422
 Alpha  occ. eigenvalues --  -10.29751 -10.28308 -10.28205 -10.27698 -10.27519
 Alpha  occ. eigenvalues --  -10.27434 -10.27375 -10.27287 -10.26730  -1.23443
 Alpha  occ. eigenvalues --   -1.17119  -1.16482  -1.15629  -1.15068  -1.14157
 Alpha  occ. eigenvalues --   -1.13428  -1.10841  -1.05255  -1.05067  -1.04391
 Alpha  occ. eigenvalues --   -1.03503  -1.02374  -1.00435  -0.96166  -0.94157
 Alpha  occ. eigenvalues --   -0.92483  -0.91369  -0.90581  -0.88712  -0.87952
 Alpha  occ. eigenvalues --   -0.83734  -0.83521  -0.82869  -0.81151  -0.78844
 Alpha  occ. eigenvalues --   -0.77062  -0.75684  -0.74651  -0.73042  -0.72263
 Alpha  occ. eigenvalues --   -0.71299  -0.71184  -0.69581  -0.69186  -0.69083
 Alpha  occ. eigenvalues --   -0.68536  -0.68416  -0.67094  -0.66977  -0.66325
 Alpha  occ. eigenvalues --   -0.64878  -0.64249  -0.63648  -0.62879  -0.62211
 Alpha  occ. eigenvalues --   -0.61310  -0.60869  -0.60161  -0.59503  -0.59220
 Alpha  occ. eigenvalues --   -0.59013  -0.58602  -0.58140  -0.57344  -0.56919
 Alpha  occ. eigenvalues --   -0.56201  -0.55707  -0.55276  -0.54977  -0.54664
 Alpha  occ. eigenvalues --   -0.54173  -0.54058  -0.53731  -0.53555  -0.53116
 Alpha  occ. eigenvalues --   -0.52834  -0.52500  -0.51885  -0.51484  -0.51179
 Alpha  occ. eigenvalues --   -0.51015  -0.50661  -0.50368  -0.50149  -0.49501
 Alpha  occ. eigenvalues --   -0.48761  -0.48683  -0.48526  -0.47792  -0.47490
 Alpha  occ. eigenvalues --   -0.46630  -0.45755  -0.45707  -0.45077  -0.44210
 Alpha  occ. eigenvalues --   -0.44051  -0.43157  -0.42419  -0.42346  -0.42257
 Alpha  occ. eigenvalues --   -0.40623  -0.40019  -0.39797  -0.39342  -0.38546
 Alpha  occ. eigenvalues --   -0.38350  -0.37750  -0.36684  -0.35971  -0.35659
 Alpha  occ. eigenvalues --   -0.34729  -0.34174  -0.33522  -0.33030  -0.32879
 Alpha  occ. eigenvalues --   -0.30544
 Alpha virt. eigenvalues --   -0.13173  -0.11740  -0.10224  -0.10202  -0.09147
 Alpha virt. eigenvalues --   -0.08828  -0.08727  -0.07300  -0.06891  -0.04811
 Alpha virt. eigenvalues --   -0.02295  -0.02167  -0.01831  -0.01581  -0.00757

 Mulliken charges:
               1
     1  N   -0.761156
     2  C   -0.111547
     3  C    0.655777
     4  O   -0.543922
     5  C   -0.439931
     6  C    0.638881
     7  N   -0.746654
     8  O   -0.533078
     9  H    0.434382
    10  H    0.239104
    11  H    0.208405
    12  H    0.213095
    13  H    0.371783
    14  H    0.371002
    15  H    0.428834
    16  H    0.409759
    17  N   -0.648443
    18  C   -0.075691
    19  C    0.631132
    20  O   -0.532010
    21  C   -0.367772
    22  C    0.162836
    23  C   -0.173426
    24  C   -0.212084
    25  C   -0.132616
    26  C   -0.144371
    27  C   -0.140263
    28  H    0.414853
    29  H    0.214805
    30  H    0.179213
    31  H    0.185006
    32  H    0.142471
    33  H    0.143239
    34  H    0.151866
    35  H    0.140268
    36  H    0.148935
    37  N   -0.650429
    38  C   -0.058617
    39  C    0.654198
    40  O   -0.617916
    41  C   -0.394435
    42  C    0.602853
    43  N   -0.743098
    44  O   -0.503737
    45  H    0.409297
    46  H    0.198007
    47  H    0.201654
    48  H    0.189221
    49  H    0.362358
    50  H    0.353200
    51  N   -0.596173
    52  C   -0.106922
    53  C    0.628854
    54  O   -0.479670
    55  C   -0.301952
    56  C   -0.284748
    57  C   -0.142552
    58  N   -0.661814
    59  C    0.607338
    60  N   -0.633750
    61  N   -0.807291
    62  O   -0.570023
    63  H    0.433140
    64  H    0.445827
    65  H    0.193120
    66  H    0.136003
    67  H    0.177596
    68  H    0.166675
    69  H    0.215906
    70  H    0.140176
    71  H    0.192333
    72  H    0.342660
    73  H    0.280609
    74  H    0.330993
    75  H    0.368426
 Sum of Mulliken charges =   1.00000

 Dipole moment (field-independent basis, Debye):
    X=            -30.4996    Y=             -0.8071    Z=            -34.8403  Tot=             46.3112
 Quadrupole moment (field-independent basis, Debye-Ang):
   XX=             36.6195   YY=           -203.1548   ZZ=             57.3869
   XY=            -15.9487   XZ=            211.8425   YZ=              5.2886

 Normal termination of Gaussian 16 at Mon Jun  6 02:41:33 2022.
