 Gaussian 16, Revision C.01,
 Gaussian 16:  ES64L-G16RevC.01  3-Jul-2019

 ----------------------------------------------------------------------
 # B3LYP/6-31G* empiricaldispersion=gd3 guess=read geom=check nosymm in
 tegral(ultrafinegrid)
 ----------------------------------------------------------------------

 ------------------------------------------------------
 Candidate Structure: Conf:255 Charge calc in gas phase
 ------------------------------------------------------
 Structure from the checkpoint file:  "conf-255.chk"
 Charge =  1 Multiplicity = 1

                          Input orientation:
 ---------------------------------------------------------------------
 Center     Atomic      Atomic             Coordinates (Angstroms)
 Number     Number       Type             X           Y           Z
 ---------------------------------------------------------------------
      1          7           0       -3.587208   -1.847853   -7.835379
      2          6           0       -4.783391   -2.595992   -8.353512
      3          6           0       -5.764748   -1.536071   -8.880458
      4          8           0       -5.278417   -0.533975   -9.399817
      5          6           0       -5.223314   -3.640130   -7.325632
      6          6           0       -4.105842   -4.666171   -7.109446
      7          7           0       -4.490252   -5.907602   -6.749677
      8          8           0       -2.916591   -4.361924   -7.247309
      9          1           0       -3.873429   -1.316290   -6.989020
     10          1           0       -4.446101   -3.116405   -9.257589
     11          1           0       -5.449327   -3.170266   -6.360121
     12          1           0       -6.130142   -4.133554   -7.686531
     13          1           0       -3.774727   -6.589174   -6.529929
     14          1           0       -5.456083   -6.166101   -6.615308
     15          1           0       -2.866938   -2.563482   -7.608541
     16          1           0       -3.292791   -1.169359   -8.547465
     17          7           0       -7.087316   -1.819417   -8.846515
     18          6           0       -7.965641   -1.336823   -9.922360
     19          6           0       -9.321413   -0.959080   -9.293721
     20          8           0      -10.269156   -1.748241   -9.337923
     21          6           0       -8.135785   -2.423644  -11.021766
     22          6           0       -6.858832   -3.197842  -11.258734
     23          6           0       -5.787143   -2.639405  -11.967746
     24          6           0       -6.690183   -4.466999  -10.685395
     25          6           0       -4.577735   -3.326047  -12.094096
     26          6           0       -5.483941   -5.160248  -10.808900
     27          6           0       -4.419619   -4.587560  -11.511497
     28          1           0       -7.422081   -2.656336   -8.366270
     29          1           0       -7.469233   -0.464370  -10.347913
     30          1           0       -8.939666   -3.098407  -10.717995
     31          1           0       -8.475920   -1.925823  -11.936893
     32          1           0       -5.895102   -1.653649  -12.412896
     33          1           0       -7.518458   -4.917299  -10.141822
     34          1           0       -3.760311   -2.878724  -12.652537
     35          1           0       -5.375745   -6.146422  -10.365070
     36          1           0       -3.481347   -5.124679  -11.616226
     37          7           0       -9.418695    0.221088   -8.634592
     38          6           0       -8.383686    1.210206   -8.393883
     39          6           0       -7.523424    0.991804   -7.140640
     40          8           0       -6.404005    1.549499   -7.128117
     41          6           0       -8.977043    2.634688   -8.351603
     42          6           0      -10.000413    2.813509   -7.226542
     43          7           0      -10.179166    4.084050   -6.794089
     44          8           0      -10.625563    1.861722   -6.760209
     45          1           0      -10.276858    0.371114   -8.105549
     46          1           0       -7.657382    1.187883   -9.207883
     47          1           0       -9.478057    2.832943   -9.307035
     48          1           0       -8.152570    3.348198   -8.254832
     49          1           0      -10.906363    4.261971   -6.113814
     50          1           0       -9.688961    4.872052   -7.190934
     51          7           0       -7.974208    0.261328   -6.109812
     52          6           0       -7.165108    0.168399   -4.881942
     53          6           0       -6.002944   -0.817917   -5.109496
     54          8           0       -5.831905   -1.876159   -4.548223
     55          6           0       -7.966675   -0.086102   -3.596022
     56          6           0       -9.146913   -1.066660   -3.601422
     57          6           0       -8.853851   -2.544340   -3.884965
     58          7           0       -8.454807   -2.881387   -5.257731
     59          6           0       -9.287354   -2.750691   -6.336657
     60          7           0      -10.166855   -1.812723   -6.376127
     61          7           0       -8.980650   -3.651954   -7.399834
     62          8           0       -5.117830   -0.389420   -6.043506
     63          1           0       -5.438654    0.481520   -6.460706
     64          1           0       -8.864120   -0.253232   -6.175944
     65          1           0       -6.681042    1.147112   -4.771269
     66          1           0       -7.237435   -0.386874   -2.834439
     67          1           0       -8.362537    0.885995   -3.281277
     68          1           0       -9.577595   -1.031788   -2.592209
     69          1           0       -9.932211   -0.723593   -4.277614
     70          1           0       -8.037543   -2.887875   -3.244289
     71          1           0       -9.753918   -3.118674   -3.627202
     72          1           0       -7.672037   -3.508842   -5.348558
     73          1           0      -10.752918   -1.882614   -7.206248
     74          1           0       -9.616345   -3.507816   -8.184464
     75          1           0       -9.001917   -4.625563   -7.103931
 ---------------------------------------------------------------------

 SCF Done:  E(RB3LYP) =  -1917.49942038     A.U. after    1 cycles

 Alpha  occ. eigenvalues --  -19.29703 -19.25030 -19.24978 -19.24227 -19.23618
 Alpha  occ. eigenvalues --  -19.22277 -19.21457 -14.55283 -14.48733 -14.47681
 Alpha  occ. eigenvalues --  -14.47185 -14.46116 -14.45775 -14.45592 -14.44592
 Alpha  occ. eigenvalues --  -14.38250 -10.42924 -10.42668 -10.41721 -10.40204
 Alpha  occ. eigenvalues --  -10.39650 -10.39313 -10.38345 -10.38228 -10.34963
 Alpha  occ. eigenvalues --  -10.34503 -10.34474 -10.33534 -10.30727 -10.30637
 Alpha  occ. eigenvalues --  -10.29653 -10.29044 -10.28970 -10.28959 -10.28781
 Alpha  occ. eigenvalues --  -10.28727 -10.28581 -10.28284 -10.26453  -1.20711
 Alpha  occ. eigenvalues --   -1.16982  -1.16399  -1.15343  -1.14125  -1.13237
 Alpha  occ. eigenvalues --   -1.12275  -1.10393  -1.07639  -1.04743  -1.03794
 Alpha  occ. eigenvalues --   -1.03562  -1.02499  -1.00348  -0.98654  -0.95433
 Alpha  occ. eigenvalues --   -0.94150  -0.92167  -0.89625  -0.88651  -0.88175
 Alpha  occ. eigenvalues --   -0.84288  -0.84213  -0.83755  -0.81080  -0.78775
 Alpha  occ. eigenvalues --   -0.76945  -0.76481  -0.73044  -0.72516  -0.71582
 Alpha  occ. eigenvalues --   -0.71095  -0.70760  -0.70026  -0.69560  -0.69116
 Alpha  occ. eigenvalues --   -0.68932  -0.68391  -0.67731  -0.66537  -0.66174
 Alpha  occ. eigenvalues --   -0.65015  -0.64236  -0.63871  -0.63274  -0.63141
 Alpha  occ. eigenvalues --   -0.61956  -0.61759  -0.61014  -0.60246  -0.59128
 Alpha  occ. eigenvalues --   -0.58794  -0.58465  -0.57533  -0.56779  -0.56033
 Alpha  occ. eigenvalues --   -0.55926  -0.55732  -0.55287  -0.55136  -0.54889
 Alpha  occ. eigenvalues --   -0.54720  -0.54297  -0.53872  -0.53593  -0.53457
 Alpha  occ. eigenvalues --   -0.52794  -0.52382  -0.51732  -0.51502  -0.51252
 Alpha  occ. eigenvalues --   -0.51139  -0.51068  -0.50203  -0.49946  -0.49837
 Alpha  occ. eigenvalues --   -0.49376  -0.48476  -0.48179  -0.48073  -0.47560
 Alpha  occ. eigenvalues --   -0.47428  -0.46463  -0.45750  -0.45215  -0.44048
 Alpha  occ. eigenvalues --   -0.43607  -0.43484  -0.43391  -0.42925  -0.42150
 Alpha  occ. eigenvalues --   -0.40018  -0.39852  -0.39458  -0.39181  -0.38473
 Alpha  occ. eigenvalues --   -0.38207  -0.37874  -0.36835  -0.36315  -0.35916
 Alpha  occ. eigenvalues --   -0.35722  -0.35033  -0.34846  -0.34621  -0.34211
 Alpha  occ. eigenvalues --   -0.32158
 Alpha virt. eigenvalues --   -0.11601  -0.10994  -0.10725  -0.10254  -0.09653
 Alpha virt. eigenvalues --   -0.09535  -0.09209  -0.07354  -0.06597  -0.06050
 Alpha virt. eigenvalues --   -0.03980  -0.02642  -0.01504  -0.01247  -0.00622

 Mulliken charges:
               1
     1  N   -0.758859
     2  C   -0.131238
     3  C    0.660341
     4  O   -0.539748
     5  C   -0.448368
     6  C    0.651912
     7  N   -0.738500
     8  O   -0.530601
     9  H    0.433319
    10  H    0.244617
    11  H    0.242596
    12  H    0.179261
    13  H    0.374782
    14  H    0.353992
    15  H    0.430047
    16  H    0.408606
    17  N   -0.654216
    18  C   -0.075976
    19  C    0.632056
    20  O   -0.535102
    21  C   -0.374287
    22  C    0.157347
    23  C   -0.170879
    24  C   -0.200792
    25  C   -0.138003
    26  C   -0.142341
    27  C   -0.144973
    28  H    0.410380
    29  H    0.200337
    30  H    0.183297
    31  H    0.181414
    32  H    0.149486
    33  H    0.126183
    34  H    0.157056
    35  H    0.143324
    36  H    0.156599
    37  N   -0.613560
    38  C   -0.063170
    39  C    0.642211
    40  O   -0.591576
    41  C   -0.390308
    42  C    0.607921
    43  N   -0.737537
    44  O   -0.516206
    45  H    0.386564
    46  H    0.201773
    47  H    0.205741
    48  H    0.195025
    49  H    0.363250
    50  H    0.356202
    51  N   -0.615790
    52  C   -0.082694
    53  C    0.655897
    54  O   -0.471685
    55  C   -0.289354
    56  C   -0.295774
    57  C   -0.119818
    58  N   -0.592792
    59  C    0.580631
    60  N   -0.679963
    61  N   -0.830934
    62  O   -0.660734
    63  H    0.474026
    64  H    0.428364
    65  H    0.197533
    66  H    0.167429
    67  H    0.166140
    68  H    0.156802
    69  H    0.206849
    70  H    0.162307
    71  H    0.161876
    72  H    0.323155
    73  H    0.319768
    74  H    0.369170
    75  H    0.330191
 Sum of Mulliken charges =   1.00000

 Dipole moment (field-independent basis, Debye):
    X=            -31.0719    Y=             -8.5659    Z=            -36.1925  Tot=             48.4637
 Quadrupole moment (field-independent basis, Debye-Ang):
   XX=             -5.9859   YY=           -119.7285   ZZ=             71.9080
   XY=             28.3494   XZ=            223.6662   YZ=             63.3691

 Normal termination of Gaussian 16 at Mon Jun  6 02:41:39 2022.
