 Gaussian 16, Revision C.01,
 Gaussian 16:  ES64L-G16RevC.01  3-Jul-2019

 ----------------------------------------------------------------------
 # B3LYP/6-31G* empiricaldispersion=gd3 guess=read geom=check nosymm in
 tegral(ultrafinegrid)
 ----------------------------------------------------------------------

 ------------------------------------------------------
 Candidate Structure: Conf:727 Charge calc in gas phase
 ------------------------------------------------------
 Structure from the checkpoint file:  "conf-727.chk"
 Charge =  1 Multiplicity = 1

                          Input orientation:
 ---------------------------------------------------------------------
 Center     Atomic      Atomic             Coordinates (Angstroms)
 Number     Number       Type             X           Y           Z
 ---------------------------------------------------------------------
      1          7           0      -10.746331   -3.812322   -8.251050
      2          6           0       -9.325874   -4.291750   -8.394645
      3          6           0       -8.701222   -4.109624   -6.999046
      4          8           0       -9.378661   -4.417959   -6.020010
      5          6           0       -8.631577   -3.573252   -9.545637
      6          6           0       -9.408666   -3.639955  -10.860441
      7          7           0       -8.729187   -3.188661  -11.933493
      8          8           0      -10.570022   -4.055368  -10.917830
      9          1           0      -11.198654   -4.320503   -7.483844
     10          1           0       -9.387843   -5.365829   -8.596341
     11          1           0       -8.460672   -2.525114   -9.296677
     12          1           0       -7.639754   -4.015468   -9.694076
     13          1           0       -9.191994   -3.174777  -12.833102
     14          1           0       -7.799839   -2.798268  -11.842121
     15          1           0      -10.727449   -2.790385   -8.006021
     16          1           0      -11.204623   -3.961985   -9.171787
     17          7           0       -7.470218   -3.562893   -6.939308
     18          6           0       -6.685004   -3.477521   -5.709110
     19          6           0       -6.301592   -2.018059   -5.358307
     20          8           0       -5.174805   -1.767772   -4.936417
     21          6           0       -5.429188   -4.382942   -5.825718
     22          6           0       -4.634852   -4.135432   -7.093762
     23          6           0       -4.982719   -4.786447   -8.289269
     24          6           0       -3.566972   -3.227496   -7.120099
     25          6           0       -4.312798   -4.509286   -9.483790
     26          6           0       -2.888597   -2.955040   -8.310080
     27          6           0       -3.268643   -3.583245   -9.498960
     28          1           0       -6.973104   -3.341252   -7.793103
     29          1           0       -7.327747   -3.856742   -4.907667
     30          1           0       -4.812647   -4.216074   -4.940332
     31          1           0       -5.780096   -5.420314   -5.801349
     32          1           0       -5.769565   -5.538625   -8.276368
     33          1           0       -3.268614   -2.746259   -6.195712
     34          1           0       -4.590067   -5.034133  -10.394177
     35          1           0       -2.050200   -2.262936   -8.304528
     36          1           0       -2.737502   -3.372953  -10.422699
     37          7           0       -7.226584   -1.024172   -5.508281
     38          6           0       -8.648717   -1.112000   -5.800150
     39          6           0       -9.012235   -0.858807   -7.277471
     40          8           0      -10.129621   -1.224053   -7.693438
     41          6           0       -9.454378   -0.154258   -4.883672
     42          6           0       -8.980291    1.285365   -5.055835
     43          7           0       -8.374562    1.856617   -3.987829
     44          8           0       -9.119806    1.856395   -6.134784
     45          1           0       -6.833417   -0.092342   -5.325344
     46          1           0       -9.013046   -2.112641   -5.568099
     47          1           0       -9.365997   -0.509620   -3.852213
     48          1           0      -10.505681   -0.205990   -5.180283
     49          1           0       -7.858840    2.713110   -4.147220
     50          1           0       -8.142800    1.325434   -3.161411
     51          7           0       -8.100608   -0.272430   -8.067641
     52          6           0       -8.447520    0.307896   -9.357445
     53          6           0       -7.511603   -0.216899  -10.442563
     54          8           0       -6.808607   -1.209285  -10.359612
     55          6           0       -8.568618    1.851338   -9.318097
     56          6           0       -7.274345    2.680737   -9.219731
     57          6           0       -6.473752    2.582149   -7.916560
     58          7           0       -5.692016    1.330229   -7.864274
     59          6           0       -5.026778    0.994594   -6.677216
     60          7           0       -5.470769    1.433764   -5.546474
     61          7           0       -3.938686    0.157981   -6.865121
     62          8           0       -7.593253    0.523009  -11.560919
     63          1           0       -6.988497    0.135401  -12.221894
     64          1           0       -7.215799    0.064335   -7.682748
     65          1           0       -9.438950   -0.087462   -9.612510
     66          1           0       -9.088985    2.147705  -10.234588
     67          1           0       -9.221239    2.086520   -8.473977
     68          1           0       -6.623282    2.468476  -10.080418
     69          1           0       -7.569956    3.730368   -9.332066
     70          1           0       -5.798775    3.443786   -7.826709
     71          1           0       -7.143805    2.596217   -7.057491
     72          1           0       -5.090275    1.230659   -8.677359
     73          1           0       -4.905083    1.057183   -4.784134
     74          1           0       -3.738524   -0.409383   -6.048732
     75          1           0       -3.958864   -0.422231   -7.698007
 ---------------------------------------------------------------------

 SCF Done:  E(RB3LYP) =  -1917.50108858     A.U. after    2 cycles

 Alpha  occ. eigenvalues --  -19.32081 -19.26799 -19.25361 -19.25197 -19.24357
 Alpha  occ. eigenvalues --  -19.22720 -19.21036 -14.55773 -14.49790 -14.48437
 Alpha  occ. eigenvalues --  -14.47345 -14.46659 -14.45183 -14.45026 -14.43611
 Alpha  occ. eigenvalues --  -14.38013 -10.44664 -10.42870 -10.42818 -10.41200
 Alpha  occ. eigenvalues --  -10.40365 -10.39432 -10.38764 -10.37879 -10.35549
 Alpha  occ. eigenvalues --  -10.35376 -10.35172 -10.33775 -10.30566 -10.29823
 Alpha  occ. eigenvalues --  -10.29715 -10.29582 -10.29072 -10.28915 -10.28631
 Alpha  occ. eigenvalues --  -10.28573 -10.28381 -10.28274 -10.27890  -1.23211
 Alpha  occ. eigenvalues --   -1.17896  -1.16795  -1.15844  -1.14664  -1.14037
 Alpha  occ. eigenvalues --   -1.12865  -1.10928  -1.07304  -1.06477  -1.04678
 Alpha  occ. eigenvalues --   -1.03593  -1.02982  -0.99977  -0.98124  -0.95413
 Alpha  occ. eigenvalues --   -0.93611  -0.93012  -0.90369  -0.89210  -0.88397
 Alpha  occ. eigenvalues --   -0.84548  -0.84472  -0.84153  -0.81798  -0.78978
 Alpha  occ. eigenvalues --   -0.77241  -0.76802  -0.74006  -0.73373  -0.72568
 Alpha  occ. eigenvalues --   -0.71723  -0.71126  -0.70189  -0.69958  -0.69391
 Alpha  occ. eigenvalues --   -0.68965  -0.68266  -0.68160  -0.67587  -0.66550
 Alpha  occ. eigenvalues --   -0.65297  -0.64374  -0.63270  -0.62890  -0.62591
 Alpha  occ. eigenvalues --   -0.61449  -0.61109  -0.60811  -0.60735  -0.60135
 Alpha  occ. eigenvalues --   -0.59433  -0.59018  -0.58649  -0.57859  -0.56605
 Alpha  occ. eigenvalues --   -0.56460  -0.56372  -0.55658  -0.55454  -0.55065
 Alpha  occ. eigenvalues --   -0.54713  -0.54694  -0.54405  -0.53875  -0.53588
 Alpha  occ. eigenvalues --   -0.53529  -0.52996  -0.52436  -0.52125  -0.51739
 Alpha  occ. eigenvalues --   -0.51359  -0.51165  -0.51101  -0.50445  -0.50173
 Alpha  occ. eigenvalues --   -0.49269  -0.48851  -0.48457  -0.48246  -0.47607
 Alpha  occ. eigenvalues --   -0.47401  -0.46888  -0.46524  -0.45488  -0.45023
 Alpha  occ. eigenvalues --   -0.44048  -0.43665  -0.43503  -0.43156  -0.42897
 Alpha  occ. eigenvalues --   -0.40329  -0.40203  -0.39830  -0.39710  -0.39695
 Alpha  occ. eigenvalues --   -0.38863  -0.37978  -0.36922  -0.36441  -0.35957
 Alpha  occ. eigenvalues --   -0.35663  -0.35234  -0.34806  -0.34719  -0.34070
 Alpha  occ. eigenvalues --   -0.32429
 Alpha virt. eigenvalues --   -0.12437  -0.11990  -0.10995  -0.10811  -0.10114
 Alpha virt. eigenvalues --   -0.10001  -0.09642  -0.07432  -0.05679  -0.05010
 Alpha virt. eigenvalues --   -0.04881  -0.02853  -0.02476  -0.01506  -0.01406

 Mulliken charges:
               1
     1  N   -0.767689
     2  C   -0.112802
     3  C    0.636358
     4  O   -0.525545
     5  C   -0.443410
     6  C    0.628534
     7  N   -0.747148
     8  O   -0.529378
     9  H    0.409460
    10  H    0.229981
    11  H    0.233687
    12  H    0.204517
    13  H    0.370163
    14  H    0.369047
    15  H    0.446530
    16  H    0.430219
    17  N   -0.611402
    18  C   -0.095056
    19  C    0.622647
    20  O   -0.525502
    21  C   -0.344438
    22  C    0.135252
    23  C   -0.215090
    24  C   -0.181706
    25  C   -0.125363
    26  C   -0.150502
    27  C   -0.125046
    28  H    0.371647
    29  H    0.220636
    30  H    0.197473
    31  H    0.167756
    32  H    0.127175
    33  H    0.164545
    34  H    0.142821
    35  H    0.156381
    36  H    0.151444
    37  N   -0.658044
    38  C   -0.083513
    39  C    0.673981
    40  O   -0.615983
    41  C   -0.352671
    42  C    0.583493
    43  N   -0.716512
    44  O   -0.510190
    45  H    0.391007
    46  H    0.201469
    47  H    0.167125
    48  H    0.209257
    49  H    0.369044
    50  H    0.349388
    51  N   -0.595407
    52  C   -0.098806
    53  C    0.602378
    54  O   -0.498904
    55  C   -0.276509
    56  C   -0.300790
    57  C   -0.144883
    58  N   -0.655729
    59  C    0.602216
    60  N   -0.685251
    61  N   -0.755232
    62  O   -0.543881
    63  H    0.421724
    64  H    0.408791
    65  H    0.212357
    66  H    0.168105
    67  H    0.214528
    68  H    0.135288
    69  H    0.172067
    70  H    0.163734
    71  H    0.219200
    72  H    0.324214
    73  H    0.297138
    74  H    0.362264
    75  H    0.327337
 Sum of Mulliken charges =   1.00000

 Dipole moment (field-independent basis, Debye):
    X=            -36.7317    Y=            -10.0373    Z=            -41.5490  Tot=             56.3585
 Quadrupole moment (field-independent basis, Debye-Ang):
   XX=             77.6612   YY=           -177.8098   ZZ=            186.6552
   XY=             88.2464   XZ=            309.2621   YZ=             91.3111

 Normal termination of Gaussian 16 at Mon Jun  6 02:48:08 2022.
