 Gaussian 16, Revision C.01,
 Gaussian 16:  ES64L-G16RevC.01  3-Jul-2019

 ----------------------------------------------------------------------
 # B3LYP/6-31G* empiricaldispersion=gd3 guess=read geom=check nosymm in
 tegral(ultrafinegrid)
 ----------------------------------------------------------------------

 -----------------------------------------------------
 Candidate Structure: Conf:84 Charge calc in gas phase
 -----------------------------------------------------
 Structure from the checkpoint file:  "conf-84.chk"
 Charge =  1 Multiplicity = 1

                          Input orientation:
 ---------------------------------------------------------------------
 Center     Atomic      Atomic             Coordinates (Angstroms)
 Number     Number       Type             X           Y           Z
 ---------------------------------------------------------------------
      1          7           0       -9.531524   -0.020443   -8.229217
      2          6           0      -10.125514   -1.118096   -7.390532
      3          6           0       -9.109320   -1.849306   -6.506864
      4          8           0       -9.407269   -2.084200   -5.343708
      5          6           0      -10.851598   -2.124736   -8.286196
      6          6           0      -11.960455   -1.473732   -9.107897
      7          7           0      -12.918678   -2.312023   -9.546693
      8          8           0      -11.950498   -0.264666   -9.370227
      9          1           0      -10.337661    0.403536   -8.732997
     10          1           0      -10.825060   -0.631636   -6.709602
     11          1           0      -10.140827   -2.608675   -8.967546
     12          1           0      -11.241799   -2.927874   -7.654259
     13          1           0      -13.666235   -1.946342  -10.122413
     14          1           0      -12.918097   -3.294379   -9.308196
     15          1           0       -8.983903    0.634330   -7.625497
     16          1           0       -8.864764   -0.387330   -8.929453
     17          7           0       -7.960274   -2.285661   -7.094991
     18          6           0       -7.162611   -3.326283   -6.445888
     19          6           0       -5.673156   -2.947358   -6.323677
     20          8           0       -4.806803   -3.729396   -6.716340
     21          6           0       -7.328210   -4.675519   -7.179633
     22          6           0       -8.772705   -5.026576   -7.477205
     23          6           0       -9.724554   -5.152185   -6.453509
     24          6           0       -9.187100   -5.238673   -8.799072
     25          6           0      -11.048903   -5.482898   -6.744781
     26          6           0      -10.510814   -5.575691   -9.097535
     27          6           0      -11.447898   -5.698097   -8.069023
     28          1           0       -7.737486   -2.053711   -8.058608
     29          1           0       -7.566928   -3.405656   -5.432406
     30          1           0       -6.761908   -4.637966   -8.115285
     31          1           0       -6.848492   -5.451274   -6.573521
     32          1           0       -9.433611   -4.984684   -5.420576
     33          1           0       -8.460670   -5.159687   -9.605150
     34          1           0      -11.766619   -5.585854   -5.935799
     35          1           0      -10.801155   -5.759805  -10.128565
     36          1           0      -12.472074   -5.988873   -8.289909
     37          7           0       -5.337537   -1.759970   -5.744418
     38          6           0       -6.209647   -0.648682   -5.390860
     39          6           0       -6.612624    0.231111   -6.591240
     40          8           0       -7.656549    0.907249   -6.512211
     41          6           0       -5.592688    0.221987   -4.278510
     42          6           0       -4.263852    0.865605   -4.680722
     43          7           0       -3.859463    1.902276   -3.909628
     44          8           0       -3.606994    0.455015   -5.637001
     45          1           0       -4.346888   -1.529924   -5.789082
     46          1           0       -7.149501   -1.034920   -4.991918
     47          1           0       -5.424665   -0.406681   -3.395365
     48          1           0       -6.324367    0.987851   -3.999108
     49          1           0       -2.946284    2.301582   -4.082528
     50          1           0       -4.374332    2.214744   -3.099419
     51          7           0       -5.813412    0.211840   -7.669783
     52          6           0       -6.058907    1.026399   -8.844720
     53          6           0       -6.615900    0.162485   -9.976066
     54          8           0       -7.289872   -0.859406   -9.804282
     55          6           0       -4.863978    1.937619   -9.201940
     56          6           0       -3.485838    1.268233   -9.287261
     57          6           0       -3.322017    0.228304  -10.398422
     58          7           0       -4.287995   -0.888354  -10.326952
     59          6           0       -4.076653   -1.901608   -9.377970
     60          7           0       -3.336698   -1.668159   -8.354738
     61          7           0       -4.741762   -3.082676   -9.689237
     62          8           0       -6.540103    0.754542  -11.170517
     63          1           0       -7.026401    0.201559  -11.811749
     64          1           0       -4.935728   -0.312046   -7.632153
     65          1           0       -6.900487    1.686874   -8.590214
     66          1           0       -5.103094    2.452253  -10.138682
     67          1           0       -4.824446    2.703616   -8.419706
     68          1           0       -2.751465    2.060396   -9.479677
     69          1           0       -3.211512    0.825384   -8.326829
     70          1           0       -3.488055    0.703937  -11.370985
     71          1           0       -2.297217   -0.160807  -10.372757
     72          1           0       -4.465685   -1.280887  -11.245992
     73          1           0       -3.317777   -2.477756   -7.734001
     74          1           0       -4.788082   -3.737975   -8.915393
     75          1           0       -5.624691   -2.974458  -10.175812
 ---------------------------------------------------------------------

 SCF Done:  E(RB3LYP) =  -1917.50309425     A.U. after    1 cycles

 Alpha  occ. eigenvalues --  -19.32770 -19.27704 -19.24528 -19.24041 -19.23812
 Alpha  occ. eigenvalues --  -19.22293 -19.21754 -14.54805 -14.48136 -14.47981
 Alpha  occ. eigenvalues --  -14.47455 -14.46153 -14.45785 -14.44487 -14.43296
 Alpha  occ. eigenvalues --  -14.36927 -10.46135 -10.42057 -10.41369 -10.40827
 Alpha  occ. eigenvalues --  -10.39718 -10.39552 -10.38026 -10.36982 -10.35638
 Alpha  occ. eigenvalues --  -10.34935 -10.34431 -10.32894 -10.30935 -10.30209
 Alpha  occ. eigenvalues --  -10.29793 -10.29312 -10.29039 -10.28910 -10.28875
 Alpha  occ. eigenvalues --  -10.28855 -10.28794 -10.28552 -10.26475  -1.24096
 Alpha  occ. eigenvalues --   -1.16466  -1.15973  -1.15560  -1.14613  -1.14154
 Alpha  occ. eigenvalues --   -1.13507  -1.10496  -1.06637  -1.04993  -1.04416
 Alpha  occ. eigenvalues --   -1.02971  -1.02501  -1.00586  -0.97587  -0.95441
 Alpha  occ. eigenvalues --   -0.92934  -0.91963  -0.90411  -0.88941  -0.88411
 Alpha  occ. eigenvalues --   -0.84492  -0.84315  -0.84115  -0.80785  -0.79024
 Alpha  occ. eigenvalues --   -0.77711  -0.76611  -0.74123  -0.72609  -0.71821
 Alpha  occ. eigenvalues --   -0.71480  -0.70837  -0.70141  -0.69694  -0.69136
 Alpha  occ. eigenvalues --   -0.68728  -0.68418  -0.67557  -0.65632  -0.65445
 Alpha  occ. eigenvalues --   -0.64826  -0.64400  -0.63778  -0.63017  -0.62576
 Alpha  occ. eigenvalues --   -0.62350  -0.61496  -0.60794  -0.60494  -0.60097
 Alpha  occ. eigenvalues --   -0.59607  -0.58803  -0.58197  -0.57423  -0.56742
 Alpha  occ. eigenvalues --   -0.56412  -0.55296  -0.55245  -0.55005  -0.54872
 Alpha  occ. eigenvalues --   -0.54684  -0.54028  -0.53933  -0.53689  -0.53218
 Alpha  occ. eigenvalues --   -0.52889  -0.52398  -0.52181  -0.51686  -0.51482
 Alpha  occ. eigenvalues --   -0.51425  -0.51026  -0.50776  -0.49991  -0.49561
 Alpha  occ. eigenvalues --   -0.49351  -0.49115  -0.48369  -0.47939  -0.47563
 Alpha  occ. eigenvalues --   -0.46973  -0.46614  -0.46231  -0.45401  -0.45211
 Alpha  occ. eigenvalues --   -0.44268  -0.43721  -0.43604  -0.43464  -0.42260
 Alpha  occ. eigenvalues --   -0.41250  -0.39852  -0.39275  -0.38975  -0.38410
 Alpha  occ. eigenvalues --   -0.38062  -0.37338  -0.36767  -0.36193  -0.36031
 Alpha  occ. eigenvalues --   -0.35154  -0.34898  -0.34667  -0.34479  -0.34105
 Alpha  occ. eigenvalues --   -0.31857
 Alpha virt. eigenvalues --   -0.12781  -0.11664  -0.10468  -0.10413  -0.10095
 Alpha virt. eigenvalues --   -0.09628  -0.09024  -0.07536  -0.05694  -0.04545
 Alpha virt. eigenvalues --   -0.03628  -0.02497  -0.02195  -0.01587  -0.00761

 Mulliken charges:
               1
     1  N   -0.813502
     2  C   -0.117695
     3  C    0.652248
     4  O   -0.509295
     5  C   -0.409364
     6  C    0.637640
     7  N   -0.736849
     8  O   -0.538196
     9  H    0.425217
    10  H    0.227966
    11  H    0.200754
    12  H    0.222687
    13  H    0.370696
    14  H    0.361997
    15  H    0.443185
    16  H    0.409373
    17  N   -0.641570
    18  C   -0.089391
    19  C    0.631159
    20  O   -0.524703
    21  C   -0.356413
    22  C    0.173598
    23  C   -0.175143
    24  C   -0.206348
    25  C   -0.141351
    26  C   -0.133904
    27  C   -0.160740
    28  H    0.362444
    29  H    0.220134
    30  H    0.145119
    31  H    0.199883
    32  H    0.157860
    33  H    0.133290
    34  H    0.159358
    35  H    0.148946
    36  H    0.148655
    37  N   -0.625037
    38  C   -0.060106
    39  C    0.639782
    40  O   -0.600954
    41  C   -0.395145
    42  C    0.604392
    43  N   -0.737619
    44  O   -0.514208
    45  H    0.383308
    46  H    0.206989
    47  H    0.208126
    48  H    0.197003
    49  H    0.363914
    50  H    0.356663
    51  N   -0.596747
    52  C   -0.086452
    53  C    0.669514
    54  O   -0.556651
    55  C   -0.274444
    56  C   -0.306689
    57  C   -0.118565
    58  N   -0.642966
    59  C    0.590100
    60  N   -0.675973
    61  N   -0.785637
    62  O   -0.539260
    63  H    0.424816
    64  H    0.420471
    65  H    0.193115
    66  H    0.169541
    67  H    0.166411
    68  H    0.158987
    69  H    0.219304
    70  H    0.146746
    71  H    0.180196
    72  H    0.328008
    73  H    0.317983
    74  H    0.372503
    75  H    0.320838
 Sum of Mulliken charges =   1.00000

 Dipole moment (field-independent basis, Debye):
    X=            -40.7354    Y=             -3.8738    Z=            -39.8352  Tot=             57.1072
 Quadrupole moment (field-independent basis, Debye-Ang):
   XX=            163.4583   YY=           -191.6461   ZZ=            158.6309
   XY=             77.1586   XZ=            357.6348   YZ=             49.0677

 Normal termination of Gaussian 16 at Mon Jun  6 02:41:22 2022.
