 Gaussian 16, Revision C.01,
 Gaussian 16:  ES64L-G16RevC.01  3-Jul-2019

 ----------------------------------------------------------------------
 # B3LYP/6-31G* empiricaldispersion=gd3 guess=read geom=check nosymm in
 tegral(ultrafinegrid)
 ----------------------------------------------------------------------

 ------------------------------------------------------
 Candidate Structure: Conf:771 Charge calc in gas phase
 ------------------------------------------------------
 Structure from the checkpoint file:  "conf-771.chk"
 Charge =  1 Multiplicity = 1

                          Input orientation:
 ---------------------------------------------------------------------
 Center     Atomic      Atomic             Coordinates (Angstroms)
 Number     Number       Type             X           Y           Z
 ---------------------------------------------------------------------
      1          7           0       -7.522840   -3.856026   -9.864067
      2          6           0       -7.897397   -4.634812   -8.629182
      3          6           0       -8.360216   -3.782337   -7.439080
      4          8           0       -9.277767   -4.204780   -6.749167
      5          6           0       -6.710132   -5.505293   -8.205926
      6          6           0       -6.269227   -6.455565   -9.318417
      7          7           0       -5.434903   -7.441546   -8.936546
      8          8           0       -6.639658   -6.303829  -10.488251
      9          1           0       -8.230380   -3.140377  -10.120800
     10          1           0       -8.747923   -5.256887   -8.911121
     11          1           0       -5.861826   -4.873188   -7.914681
     12          1           0       -6.993556   -6.059602   -7.306072
     13          1           0       -5.076273   -8.078259   -9.636432
     14          1           0       -5.121407   -7.538678   -7.980966
     15          1           0       -6.641971   -3.328187   -9.736431
     16          1           0       -7.356100   -4.578178  -10.593603
     17          7           0       -7.676998   -2.636654   -7.172860
     18          6           0       -7.745113   -2.035783   -5.843193
     19          6           0       -8.480918   -0.688643   -5.711083
     20          8           0       -8.263674   -0.017032   -4.698486
     21          6           0       -6.308744   -1.908850   -5.274835
     22          6           0       -5.531214   -3.201423   -5.406980
     23          6           0       -5.920874   -4.347724   -4.698860
     24          6           0       -4.427647   -3.288261   -6.266427
     25          6           0       -5.220578   -5.546832   -4.839088
     26          6           0       -3.717307   -4.484965   -6.404455
     27          6           0       -4.113196   -5.618816   -5.690821
     28          1           0       -6.881806   -2.367736   -7.747786
     29          1           0       -8.320704   -2.733908   -5.225816
     30          1           0       -5.789171   -1.103761   -5.809367
     31          1           0       -6.390189   -1.591997   -4.232252
     32          1           0       -6.773624   -4.300788   -4.025783
     33          1           0       -4.117325   -2.412063   -6.830792
     34          1           0       -5.527930   -6.418952   -4.268523
     35          1           0       -2.852649   -4.526100   -7.061220
     36          1           0       -3.546954   -6.543218   -5.774903
     37          7           0       -9.366310   -0.248391   -6.647163
     38          6           0       -9.735403   -0.794081   -7.943657
     39          6           0       -8.626429   -0.690062   -8.999929
     40          8           0       -8.707489   -1.353335  -10.051986
     41          6           0      -10.996546   -0.072123   -8.488414
     42          6           0      -10.773195    1.433131   -8.592183
     43          7           0      -10.586120    1.936318   -9.834417
     44          8           0      -10.708479    2.122701   -7.574237
     45          1           0       -9.766278    0.666405   -6.438727
     46          1           0       -9.994717   -1.849954   -7.854263
     47          1           0      -11.821218   -0.239511   -7.790241
     48          1           0      -11.250564   -0.530882   -9.447656
     49          1           0      -10.407759    2.927492   -9.930438
     50          1           0      -10.713431    1.384374  -10.669485
     51          7           0       -7.617026    0.163753   -8.770459
     52          6           0       -6.606055    0.384128   -9.782177
     53          6           0       -5.824368   -0.903057  -10.045846
     54          8           0       -5.719185   -1.825257   -9.246890
     55          6           0       -5.646616    1.531329   -9.390678
     56          6           0       -4.837315    1.289272   -8.092652
     57          6           0       -5.316717    2.136577   -6.905855
     58          7           0       -6.691528    1.822856   -6.473927
     59          6           0       -7.703512    2.790371   -6.661541
     60          7           0       -7.697062    3.476061   -7.750838
     61          7           0       -8.612402    2.863185   -5.626200
     62          8           0       -5.192814   -0.997245  -11.216630
     63          1           0       -5.351415   -0.213069  -11.771897
     64          1           0       -7.526847    0.688692   -7.891452
     65          1           0       -7.112170    0.647664  -10.721002
     66          1           0       -4.969161    1.694163  -10.237251
     67          1           0       -6.261867    2.432404   -9.280869
     68          1           0       -4.856479    0.227617   -7.811928
     69          1           0       -3.783964    1.535092   -8.270688
     70          1           0       -4.644360    1.971651   -6.056245
     71          1           0       -5.269476    3.196532   -7.170498
     72          1           0       -6.732989    1.385733   -5.560300
     73          1           0       -8.467971    4.143497   -7.755967
     74          1           0       -9.538633    3.167771   -5.899118
     75          1           0       -8.620471    2.098306   -4.956639
 ---------------------------------------------------------------------

 SCF Done:  E(RB3LYP) =  -1917.49893624     A.U. after    1 cycles

 Alpha  occ. eigenvalues --  -19.33748 -19.28425 -19.24864 -19.24417 -19.23911
 Alpha  occ. eigenvalues --  -19.22566 -19.22550 -14.55187 -14.48130 -14.47886
 Alpha  occ. eigenvalues --  -14.47850 -14.46929 -14.46869 -14.43754 -14.41844
 Alpha  occ. eigenvalues --  -14.36514 -10.46414 -10.41981 -10.41510 -10.41409
 Alpha  occ. eigenvalues --  -10.40312 -10.40294 -10.38234 -10.36699 -10.36349
 Alpha  occ. eigenvalues --  -10.36029 -10.34772 -10.32926 -10.31476 -10.30690
 Alpha  occ. eigenvalues --  -10.29999 -10.29984 -10.29787 -10.29138 -10.29077
 Alpha  occ. eigenvalues --  -10.29025 -10.28981 -10.28844 -10.28699  -1.24743
 Alpha  occ. eigenvalues --   -1.16901  -1.16270  -1.15928  -1.15854  -1.14639
 Alpha  occ. eigenvalues --   -1.14225  -1.10725  -1.05989  -1.05418  -1.04677
 Alpha  occ. eigenvalues --   -1.03195  -1.02856  -1.01547  -0.96814  -0.95645
 Alpha  occ. eigenvalues --   -0.92084  -0.92031  -0.91352  -0.89503  -0.89006
 Alpha  occ. eigenvalues --   -0.84775  -0.84468  -0.84288  -0.80869  -0.79504
 Alpha  occ. eigenvalues --   -0.77738  -0.76809  -0.75531  -0.72885  -0.72496
 Alpha  occ. eigenvalues --   -0.71528  -0.71078  -0.70480  -0.70240  -0.69830
 Alpha  occ. eigenvalues --   -0.69633  -0.68625  -0.68042  -0.67069  -0.66204
 Alpha  occ. eigenvalues --   -0.65582  -0.64744  -0.64434  -0.64099  -0.62592
 Alpha  occ. eigenvalues --   -0.62268  -0.61686  -0.61005  -0.60469  -0.59966
 Alpha  occ. eigenvalues --   -0.59549  -0.59434  -0.58373  -0.57793  -0.57652
 Alpha  occ. eigenvalues --   -0.56606  -0.56104  -0.55622  -0.55422  -0.55359
 Alpha  occ. eigenvalues --   -0.55111  -0.54604  -0.54124  -0.53832  -0.53232
 Alpha  occ. eigenvalues --   -0.53066  -0.52639  -0.52316  -0.52043  -0.51818
 Alpha  occ. eigenvalues --   -0.51651  -0.51036  -0.50791  -0.50394  -0.49855
 Alpha  occ. eigenvalues --   -0.49690  -0.49306  -0.49079  -0.48875  -0.48033
 Alpha  occ. eigenvalues --   -0.47444  -0.47214  -0.46640  -0.45853  -0.45236
 Alpha  occ. eigenvalues --   -0.44939  -0.44225  -0.43867  -0.43802  -0.43244
 Alpha  occ. eigenvalues --   -0.41905  -0.40252  -0.39299  -0.39143  -0.38790
 Alpha  occ. eigenvalues --   -0.38661  -0.37943  -0.37393  -0.36695  -0.35959
 Alpha  occ. eigenvalues --   -0.35781  -0.35131  -0.34795  -0.34461  -0.34353
 Alpha  occ. eigenvalues --   -0.30796
 Alpha virt. eigenvalues --   -0.13829  -0.12260  -0.11141  -0.10394  -0.10249
 Alpha virt. eigenvalues --   -0.09486  -0.09217  -0.08704  -0.06846  -0.04069
 Alpha virt. eigenvalues --   -0.03722  -0.03062  -0.02446  -0.02123  -0.00204

 Mulliken charges:
               1
     1  N   -0.802540
     2  C   -0.117122
     3  C    0.619619
     4  O   -0.496865
     5  C   -0.415755
     6  C    0.636233
     7  N   -0.736029
     8  O   -0.535356
     9  H    0.434845
    10  H    0.226846
    11  H    0.219077
    12  H    0.220273
    13  H    0.371546
    14  H    0.361445
    15  H    0.422833
    16  H    0.428746
    17  N   -0.668652
    18  C   -0.060093
    19  C    0.639492
    20  O   -0.538172
    21  C   -0.395367
    22  C    0.178911
    23  C   -0.180531
    24  C   -0.209470
    25  C   -0.139534
    26  C   -0.140204
    27  C   -0.153151
    28  H    0.393184
    29  H    0.226407
    30  H    0.155947
    31  H    0.208800
    32  H    0.153699
    33  H    0.147075
    34  H    0.156963
    35  H    0.152831
    36  H    0.146576
    37  N   -0.651089
    38  C   -0.041157
    39  C    0.633421
    40  O   -0.612294
    41  C   -0.383958
    42  C    0.603832
    43  N   -0.731621
    44  O   -0.524188
    45  H    0.380101
    46  H    0.201309
    47  H    0.214083
    48  H    0.181466
    49  H    0.364329
    50  H    0.356372
    51  N   -0.623605
    52  C   -0.076895
    53  C    0.658603
    54  O   -0.518941
    55  C   -0.324053
    56  C   -0.301003
    57  C   -0.135618
    58  N   -0.664304
    59  C    0.583178
    60  N   -0.657320
    61  N   -0.775441
    62  O   -0.536095
    63  H    0.441462
    64  H    0.441275
    65  H    0.176919
    66  H    0.146153
    67  H    0.245017
    68  H    0.148348
    69  H    0.165310
    70  H    0.157382
    71  H    0.195787
    72  H    0.352656
    73  H    0.286116
    74  H    0.356584
    75  H    0.355370
 Sum of Mulliken charges =   1.00000

 Dipole moment (field-independent basis, Debye):
    X=            -32.6938    Y=            -11.3226    Z=            -43.9743  Tot=             55.9538
 Quadrupole moment (field-independent basis, Debye-Ang):
   XX=             26.3985   YY=           -135.9325   ZZ=            193.3975
   XY=             52.0473   XZ=            311.7336   YZ=             79.5402

 Normal termination of Gaussian 16 at Mon Jun  6 02:47:38 2022.
