 Gaussian 16, Revision C.01,
 Gaussian 16:  ES64L-G16RevC.01  3-Jul-2019

 ----------------------------------------------------------------------
 # B3LYP/6-31G* empiricaldispersion=gd3 guess=read geom=check nosymm in
 tegral(ultrafinegrid)
 ----------------------------------------------------------------------

 ------------------------------------------------------
 Candidate Structure: Conf:135 Charge calc in gas phase
 ------------------------------------------------------
 Structure from the checkpoint file:  "conf-135.chk"
 Charge =  1 Multiplicity = 1

                          Input orientation:
 ---------------------------------------------------------------------
 Center     Atomic      Atomic             Coordinates (Angstroms)
 Number     Number       Type             X           Y           Z
 ---------------------------------------------------------------------
      1          7           0       -7.745443    1.188573   -7.381897
      2          6           0       -9.011087    0.617289   -6.804887
      3          6           0       -8.893336   -0.845948   -6.365458
      4          8           0       -9.367992   -1.172731   -5.286194
      5          6           0      -10.156402    0.765371   -7.809366
      6          6           0      -10.401983    2.220899   -8.196168
      7          7           0      -11.630329    2.488292   -8.678959
      8          8           0       -9.515499    3.078185   -8.096141
      9          1           0       -7.966469    2.184248   -7.589666
     10          1           0       -9.214490    1.190466   -5.899479
     11          1           0       -9.942705    0.186927   -8.716760
     12          1           0      -11.052549    0.309780   -7.378087
     13          1           0      -11.845896    3.429723   -8.981039
     14          1           0      -12.346812    1.777583   -8.737615
     15          1           0       -6.949636    1.032891   -6.721940
     16          1           0       -7.478602    0.721940   -8.265284
     17          7           0       -8.347949   -1.728443   -7.248822
     18          6           0       -8.582537   -3.162620   -7.080070
     19          6           0       -7.281429   -3.988608   -7.120578
     20          8           0       -7.195339   -4.961814   -7.870094
     21          6           0       -9.592738   -3.676088   -8.129846
     22          6           0      -10.827560   -2.805460   -8.254222
     23          6           0      -11.670273   -2.563984   -7.158171
     24          6           0      -11.155306   -2.221400   -9.485283
     25          6           0      -12.806971   -1.765209   -7.292109
     26          6           0      -12.295407   -1.424722   -9.627895
     27          6           0      -13.125944   -1.193032   -8.529042
     28          1           0       -7.944532   -1.417322   -8.127712
     29          1           0       -9.008042   -3.266416   -6.077549
     30          1           0       -9.090335   -3.737055   -9.100125
     31          1           0       -9.858384   -4.705780   -7.868182
     32          1           0      -11.435959   -2.996440   -6.189772
     33          1           0      -10.521969   -2.408318  -10.349950
     34          1           0      -13.451354   -1.600627   -6.433124
     35          1           0      -12.541261   -1.003901  -10.599329
     36          1           0      -14.030213   -0.599265   -8.638646
     37          7           0       -6.254257   -3.646626   -6.292323
     38          6           0       -6.107546   -2.444827   -5.483135
     39          6           0       -5.663640   -1.205562   -6.285984
     40          8           0       -5.922885   -0.074735   -5.830893
     41          6           0       -5.152659   -2.676630   -4.295401
     42          6           0       -3.731631   -3.048082   -4.724993
     43          7           0       -2.778022   -2.908167   -3.774277
     44          8           0       -3.482207   -3.456542   -5.858801
     45          1           0       -5.393501   -4.168602   -6.444003
     46          1           0       -7.073364   -2.174590   -5.052047
     47          1           0       -5.555061   -3.488280   -3.676771
     48          1           0       -5.146513   -1.770172   -3.680398
     49          1           0       -1.840834   -3.225818   -3.984118
     50          1           0       -2.985137   -2.614306   -2.830922
     51          7           0       -5.024070   -1.416261   -7.447395
     52          6           0       -4.517805   -0.336646   -8.273436
     53          6           0       -5.422502   -0.136926   -9.489128
     54          8           0       -6.633230   -0.385421   -9.503820
     55          6           0       -3.004410   -0.458548   -8.556981
     56          6           0       -2.504778   -1.815224   -9.071015
     57          6           0       -3.028861   -2.236201  -10.446327
     58          7           0       -4.502669   -2.309771  -10.533707
     59          6           0       -5.155764   -3.419015   -9.972445
     60          7           0       -4.561006   -4.117476   -9.073918
     61          7           0       -6.431982   -3.614876  -10.489316
     62          8           0       -4.847107    0.582910  -10.455402
     63          1           0       -5.524312    0.773022  -11.132688
     64          1           0       -4.783556   -2.372529   -7.718978
     65          1           0       -4.661898    0.586863   -7.694092
     66          1           0       -2.727264    0.343709   -9.249134
     67          1           0       -2.501638   -0.246387   -7.607023
     68          1           0       -1.412456   -1.750007   -9.151081
     69          1           0       -2.710217   -2.603581   -8.342874
     70          1           0       -2.722537   -1.498022  -11.195301
     71          1           0       -2.589027   -3.204490  -10.713179
     72          1           0       -4.824535   -2.137948  -11.480897
     73          1           0       -5.175683   -4.854752   -8.727906
     74          1           0       -6.996299   -4.257709   -9.942779
     75          1           0       -6.930354   -2.773859  -10.758209
 ---------------------------------------------------------------------

 SCF Done:  E(RB3LYP) =  -1917.50309573     A.U. after    2 cycles

 Alpha  occ. eigenvalues --  -19.32774 -19.27709 -19.24529 -19.24051 -19.23814
 Alpha  occ. eigenvalues --  -19.22291 -19.21760 -14.54816 -14.48140 -14.47983
 Alpha  occ. eigenvalues --  -14.47466 -14.46149 -14.45793 -14.44474 -14.43281
 Alpha  occ. eigenvalues --  -14.36917 -10.46136 -10.42059 -10.41372 -10.40835
 Alpha  occ. eigenvalues --  -10.39716 -10.39559 -10.38031 -10.36968 -10.35644
 Alpha  occ. eigenvalues --  -10.34940 -10.34428 -10.32897 -10.30941 -10.30201
 Alpha  occ. eigenvalues --  -10.29790 -10.29307 -10.29036 -10.28907 -10.28872
 Alpha  occ. eigenvalues --  -10.28859 -10.28791 -10.28549 -10.26478  -1.24101
 Alpha  occ. eigenvalues --   -1.16469  -1.15975  -1.15569  -1.14619  -1.14153
 Alpha  occ. eigenvalues --   -1.13513  -1.10504  -1.06625  -1.04998  -1.04423
 Alpha  occ. eigenvalues --   -1.02973  -1.02502  -1.00592  -0.97575  -0.95439
 Alpha  occ. eigenvalues --   -0.92922  -0.91969  -0.90418  -0.88941  -0.88414
 Alpha  occ. eigenvalues --   -0.84493  -0.84314  -0.84113  -0.80787  -0.79028
 Alpha  occ. eigenvalues --   -0.77708  -0.76609  -0.74127  -0.72612  -0.71828
 Alpha  occ. eigenvalues --   -0.71485  -0.70840  -0.70140  -0.69692  -0.69136
 Alpha  occ. eigenvalues --   -0.68734  -0.68424  -0.67557  -0.65633  -0.65443
 Alpha  occ. eigenvalues --   -0.64830  -0.64407  -0.63781  -0.63002  -0.62578
 Alpha  occ. eigenvalues --   -0.62355  -0.61499  -0.60794  -0.60488  -0.60096
 Alpha  occ. eigenvalues --   -0.59610  -0.58805  -0.58200  -0.57422  -0.56748
 Alpha  occ. eigenvalues --   -0.56416  -0.55296  -0.55246  -0.55007  -0.54873
 Alpha  occ. eigenvalues --   -0.54682  -0.54030  -0.53930  -0.53688  -0.53216
 Alpha  occ. eigenvalues --   -0.52888  -0.52398  -0.52183  -0.51684  -0.51487
 Alpha  occ. eigenvalues --   -0.51425  -0.51027  -0.50776  -0.49996  -0.49560
 Alpha  occ. eigenvalues --   -0.49351  -0.49115  -0.48366  -0.47942  -0.47574
 Alpha  occ. eigenvalues --   -0.46971  -0.46611  -0.46231  -0.45405  -0.45210
 Alpha  occ. eigenvalues --   -0.44271  -0.43719  -0.43601  -0.43461  -0.42256
 Alpha  occ. eigenvalues --   -0.41253  -0.39856  -0.39276  -0.38977  -0.38411
 Alpha  occ. eigenvalues --   -0.38069  -0.37341  -0.36771  -0.36201  -0.36030
 Alpha  occ. eigenvalues --   -0.35149  -0.34896  -0.34668  -0.34471  -0.34100
 Alpha  occ. eigenvalues --   -0.31848
 Alpha virt. eigenvalues --   -0.12785  -0.11668  -0.10467  -0.10414  -0.10095
 Alpha virt. eigenvalues --   -0.09629  -0.09024  -0.07546  -0.05695  -0.04535
 Alpha virt. eigenvalues --   -0.03630  -0.02490  -0.02200  -0.01595  -0.00765

 Mulliken charges:
               1
     1  N   -0.813351
     2  C   -0.117734
     3  C    0.652266
     4  O   -0.509256
     5  C   -0.409341
     6  C    0.637713
     7  N   -0.736842
     8  O   -0.538239
     9  H    0.425226
    10  H    0.227986
    11  H    0.200733
    12  H    0.222709
    13  H    0.370706
    14  H    0.362012
    15  H    0.443203
    16  H    0.409289
    17  N   -0.641536
    18  C   -0.089370
    19  C    0.631026
    20  O   -0.524623
    21  C   -0.356404
    22  C    0.173517
    23  C   -0.175082
    24  C   -0.206327
    25  C   -0.141342
    26  C   -0.133893
    27  C   -0.160790
    28  H    0.362389
    29  H    0.220128
    30  H    0.145328
    31  H    0.199846
    32  H    0.157839
    33  H    0.133342
    34  H    0.159337
    35  H    0.148940
    36  H    0.148627
    37  N   -0.625110
    38  C   -0.060232
    39  C    0.639634
    40  O   -0.600918
    41  C   -0.395062
    42  C    0.604354
    43  N   -0.737556
    44  O   -0.514081
    45  H    0.383512
    46  H    0.207012
    47  H    0.208279
    48  H    0.196815
    49  H    0.363925
    50  H    0.356677
    51  N   -0.596738
    52  C   -0.086279
    53  C    0.669362
    54  O   -0.556471
    55  C   -0.274439
    56  C   -0.306851
    57  C   -0.118562
    58  N   -0.642875
    59  C    0.589603
    60  N   -0.675664
    61  N   -0.785607
    62  O   -0.539249
    63  H    0.424851
    64  H    0.420398
    65  H    0.193065
    66  H    0.169612
    67  H    0.166274
    68  H    0.158993
    69  H    0.219209
    70  H    0.146685
    71  H    0.180322
    72  H    0.328017
    73  H    0.317856
    74  H    0.372426
    75  H    0.320780
 Sum of Mulliken charges =   1.00000

 Dipole moment (field-independent basis, Debye):
    X=            -36.3090    Y=             -0.0884    Z=            -37.7190  Tot=             52.3553
 Quadrupole moment (field-independent basis, Debye-Ang):
   XX=            125.7818   YY=           -223.8949   ZZ=            120.1682
   XY=            -14.8176   XZ=            309.2766   YZ=            -21.8039

 Normal termination of Gaussian 16 at Mon Jun  6 02:41:43 2022.
