 Gaussian 16, Revision C.01,
 Gaussian 16:  ES64L-G16RevC.01  3-Jul-2019

 ----------------------------------------------------------------------
 # B3LYP/6-31G* empiricaldispersion=gd3 guess=read geom=check nosymm in
 tegral(ultrafinegrid)
 ----------------------------------------------------------------------

 ------------------------------------------------------
 Candidate Structure: Conf:368 Charge calc in gas phase
 ------------------------------------------------------
 Structure from the checkpoint file:  "conf-368.chk"
 Charge =  1 Multiplicity = 1

                          Input orientation:
 ---------------------------------------------------------------------
 Center     Atomic      Atomic             Coordinates (Angstroms)
 Number     Number       Type             X           Y           Z
 ---------------------------------------------------------------------
      1          7           0      -10.702915   -1.297298   -6.030604
      2          6           0       -9.352656   -0.930403   -5.463996
      3          6           0       -8.759414    0.057407   -6.479626
      4          8           0       -9.456053    1.037862   -6.750082
      5          6           0       -8.578498   -2.195672   -5.100891
      6          6           0       -9.327408   -3.010726   -4.046112
      7          7           0       -8.569021   -3.686968   -3.160730
      8          8           0      -10.562722   -3.064802   -4.033427
      9          1           0      -10.535368   -1.737973   -6.969083
     10          1           0       -9.544595   -0.343053   -4.561166
     11          1           0       -8.454230   -2.820409   -5.990762
     12          1           0       -7.582420   -1.903543   -4.755767
     13          1           0       -9.031814   -4.247698   -2.456195
     14          1           0       -7.566020   -3.586165   -3.114645
     15          1           0      -11.132209   -1.976403   -5.365771
     16          1           0      -11.258120   -0.444529   -6.151807
     17          7           0       -7.575772   -0.221206   -7.051322
     18          6           0       -6.813080    0.810575   -7.747540
     19          6           0       -6.583241    0.550951   -9.250805
     20          8           0       -5.509726    0.889484   -9.751306
     21          6           0       -5.458954    1.003619   -7.015306
     22          6           0       -5.658827    1.048065   -5.517314
     23          6           0       -6.218494    2.172885   -4.898894
     24          6           0       -5.380092   -0.080652   -4.733116
     25          6           0       -6.502532    2.169109   -3.531961
     26          6           0       -5.658646   -0.086492   -3.364039
     27          6           0       -6.226881    1.037766   -2.760001
     28          1           0       -7.077601   -1.086593   -6.846066
     29          1           0       -7.409553    1.726005   -7.672251
     30          1           0       -4.802194    0.169948   -7.283903
     31          1           0       -4.989982    1.913787   -7.397482
     32          1           0       -6.440087    3.056726   -5.492658
     33          1           0       -4.954784   -0.964063   -5.204799
     34          1           0       -6.933762    3.051882   -3.068527
     35          1           0       -5.416835   -0.961715   -2.765017
     36          1           0       -6.439171    1.039008   -1.694641
     37          7           0       -7.568399    0.016591  -10.026578
     38          6           0       -8.824600   -0.608563   -9.644733
     39          6           0       -8.663585   -1.991283   -8.983785
     40          8           0       -9.559960   -2.417125   -8.220598
     41          6           0       -9.765970   -0.735716  -10.866746
     42          6           0       -9.167255   -1.583321  -11.990115
     43          7           0       -9.976523   -2.532045  -12.525153
     44          8           0       -8.010614   -1.412821  -12.369173
     45          1           0       -7.290066   -0.174777  -10.989779
     46          1           0       -9.343431    0.019541   -8.918577
     47          1           0       -9.947632    0.268448  -11.266258
     48          1           0      -10.721424   -1.136986  -10.515075
     49          1           0       -9.641773   -3.032316  -13.338796
     50          1           0      -10.956722   -2.602106  -12.295456
     51          7           0       -7.564883   -2.693520   -9.280510
     52          6           0       -7.269415   -3.966595   -8.642634
     53          6           0       -6.221016   -3.763650   -7.546884
     54          8           0       -6.023221   -2.714037   -6.950943
     55          6           0       -6.992063   -5.102707   -9.650433
     56          6           0       -5.971744   -4.831037  -10.764112
     57          6           0       -4.514914   -4.635244  -10.331236
     58          7           0       -4.271527   -3.504336   -9.408810
     59          6           0       -4.336489   -2.196237   -9.894360
     60          7           0       -5.206096   -1.913729  -10.806501
     61          7           0       -3.457496   -1.300054   -9.324348
     62          8           0       -5.655390   -4.917258   -7.158797
     63          1           0       -5.067734   -4.713157   -6.407135
     64          1           0       -6.845581   -2.315184   -9.930082
     65          1           0       -8.171966   -4.249469   -8.084419
     66          1           0       -6.710387   -5.993468   -9.078904
     67          1           0       -7.954985   -5.324139  -10.124891
     68          1           0       -5.981144   -5.705133  -11.428293
     69          1           0       -6.282079   -3.976021  -11.367954
     70          1           0       -4.172373   -5.528395   -9.797480
     71          1           0       -3.899464   -4.521348  -11.233236
     72          1           0       -3.454919   -3.671533   -8.832706
     73          1           0       -5.129037   -0.936379  -11.082820
     74          1           0       -3.742557   -0.327054   -9.375864
     75          1           0       -2.964507   -1.553686   -8.479107
 ---------------------------------------------------------------------

 SCF Done:  E(RB3LYP) =  -1917.50233883     A.U. after    3 cycles

 Alpha  occ. eigenvalues --  -19.31609 -19.26316 -19.25068 -19.24239 -19.23818
 Alpha  occ. eigenvalues --  -19.21444 -19.21427 -14.55097 -14.48791 -14.47630
 Alpha  occ. eigenvalues --  -14.46677 -14.45798 -14.45269 -14.44226 -14.43322
 Alpha  occ. eigenvalues --  -14.36562 -10.44491 -10.42710 -10.41288 -10.40645
 Alpha  occ. eigenvalues --  -10.39301 -10.39053 -10.38459 -10.37138 -10.34857
 Alpha  occ. eigenvalues --  -10.34731 -10.33904 -10.33331 -10.30960 -10.30389
 Alpha  occ. eigenvalues --  -10.28723 -10.28590 -10.28526 -10.28270 -10.27981
 Alpha  occ. eigenvalues --  -10.27830 -10.27769 -10.27673 -10.26399  -1.22812
 Alpha  occ. eigenvalues --   -1.16944  -1.16236  -1.15324  -1.13526  -1.13499
 Alpha  occ. eigenvalues --   -1.13142  -1.10214  -1.06525  -1.04740  -1.03969
 Alpha  occ. eigenvalues --   -1.03628  -1.01817  -1.00452  -0.97513  -0.94555
 Alpha  occ. eigenvalues --   -0.92640  -0.92106  -0.89974  -0.88449  -0.87994
 Alpha  occ. eigenvalues --   -0.84056  -0.83525  -0.83331  -0.80871  -0.78632
 Alpha  occ. eigenvalues --   -0.77287  -0.75741  -0.73398  -0.73046  -0.71984
 Alpha  occ. eigenvalues --   -0.70817  -0.70666  -0.69699  -0.69307  -0.68912
 Alpha  occ. eigenvalues --   -0.68498  -0.68303  -0.67195  -0.66452  -0.65230
 Alpha  occ. eigenvalues --   -0.64432  -0.63994  -0.63433  -0.63151  -0.62121
 Alpha  occ. eigenvalues --   -0.61339  -0.61058  -0.60731  -0.60210  -0.59523
 Alpha  occ. eigenvalues --   -0.59203  -0.58843  -0.58255  -0.57023  -0.56330
 Alpha  occ. eigenvalues --   -0.55733  -0.55027  -0.54846  -0.54765  -0.54357
 Alpha  occ. eigenvalues --   -0.54181  -0.53855  -0.53761  -0.53547  -0.53185
 Alpha  occ. eigenvalues --   -0.52764  -0.52741  -0.51735  -0.51233  -0.50864
 Alpha  occ. eigenvalues --   -0.50674  -0.50404  -0.50188  -0.50055  -0.49493
 Alpha  occ. eigenvalues --   -0.49318  -0.48517  -0.48261  -0.47906  -0.47238
 Alpha  occ. eigenvalues --   -0.46686  -0.45995  -0.45719  -0.44521  -0.44342
 Alpha  occ. eigenvalues --   -0.43503  -0.43429  -0.42796  -0.42732  -0.42193
 Alpha  occ. eigenvalues --   -0.40026  -0.39974  -0.39723  -0.39297  -0.38458
 Alpha  occ. eigenvalues --   -0.37754  -0.37453  -0.36760  -0.35788  -0.35459
 Alpha  occ. eigenvalues --   -0.34803  -0.34448  -0.34208  -0.33906  -0.33250
 Alpha  occ. eigenvalues --   -0.31143
 Alpha virt. eigenvalues --   -0.11745  -0.10981  -0.10269  -0.09928  -0.09293
 Alpha virt. eigenvalues --   -0.09135  -0.08304  -0.07559  -0.05758  -0.04649
 Alpha virt. eigenvalues --   -0.03749  -0.03437  -0.02091  -0.02006  -0.00935

 Mulliken charges:
               1
     1  N   -0.767034
     2  C   -0.106984
     3  C    0.631212
     4  O   -0.534627
     5  C   -0.427917
     6  C    0.641026
     7  N   -0.736224
     8  O   -0.532180
     9  H    0.434144
    10  H    0.229321
    11  H    0.217021
    12  H    0.201188
    13  H    0.373913
    14  H    0.358635
    15  H    0.429829
    16  H    0.404156
    17  N   -0.656918
    18  C   -0.073674
    19  C    0.640381
    20  O   -0.533026
    21  C   -0.376771
    22  C    0.169379
    23  C   -0.177282
    24  C   -0.206855
    25  C   -0.132224
    26  C   -0.146668
    27  C   -0.134144
    28  H    0.428299
    29  H    0.220449
    30  H    0.148407
    31  H    0.193681
    32  H    0.146713
    33  H    0.134919
    34  H    0.154531
    35  H    0.126539
    36  H    0.148384
    37  N   -0.632704
    38  C   -0.066788
    39  C    0.651677
    40  O   -0.622041
    41  C   -0.385346
    42  C    0.603741
    43  N   -0.737389
    44  O   -0.501154
    45  H    0.392527
    46  H    0.194550
    47  H    0.213554
    48  H    0.165878
    49  H    0.362456
    50  H    0.352378
    51  N   -0.613983
    52  C   -0.094545
    53  C    0.666398
    54  O   -0.521741
    55  C   -0.273944
    56  C   -0.291262
    57  C   -0.125756
    58  N   -0.631443
    59  C    0.636773
    60  N   -0.712008
    61  N   -0.772558
    62  O   -0.554645
    63  H    0.416078
    64  H    0.439628
    65  H    0.206231
    66  H    0.167727
    67  H    0.159566
    68  H    0.153394
    69  H    0.209495
    70  H    0.147687
    71  H    0.170955
    72  H    0.318009
    73  H    0.315459
    74  H    0.378887
    75  H    0.324660
 Sum of Mulliken charges =   1.00000

 Dipole moment (field-independent basis, Debye):
    X=            -39.1068    Y=            -13.0575    Z=            -31.4177  Tot=             51.8354
 Quadrupole moment (field-independent basis, Debye-Ang):
   XX=            136.5860   YY=           -170.3423   ZZ=             30.2384
   XY=             88.5956   XZ=            280.1174   YZ=             96.7471

 Normal termination of Gaussian 16 at Mon Jun  6 02:48:29 2022.
