 Gaussian 16, Revision C.01,
 Gaussian 16:  ES64L-G16RevC.01  3-Jul-2019

 ----------------------------------------------------------------------
 # B3LYP/6-31G* empiricaldispersion=gd3 guess=read geom=check nosymm in
 tegral(ultrafinegrid)
 ----------------------------------------------------------------------

 ------------------------------------------------------
 Candidate Structure: Conf:879 Charge calc in gas phase
 ------------------------------------------------------
 Structure from the checkpoint file:  "conf-879.chk"
 Charge =  1 Multiplicity = 1

                          Input orientation:
 ---------------------------------------------------------------------
 Center     Atomic      Atomic             Coordinates (Angstroms)
 Number     Number       Type             X           Y           Z
 ---------------------------------------------------------------------
      1          7           0      -10.309182   -3.228373   -6.272329
      2          6           0       -8.867722   -3.552889   -5.975800
      3          6           0       -8.254592   -2.216924   -5.528818
      4          8           0       -8.911429   -1.515965   -4.761855
      5          6           0       -8.212587   -4.226508   -7.174232
      6          6           0       -9.005164   -5.409847   -7.729725
      7          7           0       -8.361110   -6.109581   -8.685589
      8          8           0      -10.148103   -5.678014   -7.348016
      9          1           0      -10.764497   -4.117036   -6.560476
     10          1           0       -8.868594   -4.221169   -5.109304
     11          1           0       -8.057818   -3.508483   -7.981266
     12          1           0       -7.219523   -4.576429   -6.870482
     13          1           0       -8.831110   -6.894729   -9.117151
     14          1           0       -7.442692   -5.836836   -9.010754
     15          1           0      -10.734427   -2.801694   -5.442686
     16          1           0      -10.331664   -2.525418   -7.050437
     17          7           0       -7.071441   -1.854411   -6.069622
     18          6           0       -6.310127   -0.713557   -5.561302
     19          6           0       -5.928451    0.250291   -6.705545
     20          8           0       -4.760867    0.608688   -6.839868
     21          6           0       -5.064880   -1.205903   -4.784917
     22          6           0       -5.437164   -2.343994   -3.861505
     23          6           0       -6.138889   -2.104669   -2.673477
     24          6           0       -5.189965   -3.671472   -4.238260
     25          6           0       -6.590011   -3.164323   -1.885379
     26          6           0       -5.639869   -4.736089   -3.453915
     27          6           0       -6.347363   -4.483574   -2.276191
     28          1           0       -6.577034   -2.500150   -6.670545
     29          1           0       -6.986009   -0.194924   -4.874677
     30          1           0       -4.301448   -1.517774   -5.504954
     31          1           0       -4.644244   -0.354249   -4.241961
     32          1           0       -6.342484   -1.081132   -2.367685
     33          1           0       -4.626063   -3.872422   -5.147988
     34          1           0       -7.129627   -2.959870   -0.965086
     35          1           0       -5.425789   -5.758749   -3.753289
     36          1           0       -6.693575   -5.308015   -1.659427
     37          7           0       -6.915388    0.697648   -7.538461
     38          6           0       -8.325932    0.344998   -7.546367
     39          6           0       -8.674629   -0.854052   -8.455031
     40          8           0       -9.751139   -1.456175   -8.278901
     41          6           0       -9.199082    1.570548   -7.913132
     42          6           0       -8.838643    2.118851   -9.290075
     43          7           0       -8.344626    3.378972   -9.331969
     44          8           0       -8.984995    1.420290  -10.290504
     45          1           0       -6.558004    1.276357   -8.314053
     46          1           0       -8.641320    0.053974   -6.543997
     47          1           0       -9.093505    2.316645   -7.119318
     48          1           0      -10.242772    1.244153   -7.943587
     49          1           0       -7.912162    3.679022  -10.196578
     50          1           0       -8.079956    3.870749   -8.491143
     51          7           0       -7.784685   -1.221563   -9.392204
     52          6           0       -8.140473   -2.104978  -10.492998
     53          6           0       -7.157468   -3.270055  -10.575150
     54          8           0       -6.454332   -3.671859   -9.663353
     55          6           0       -8.373657   -1.357194  -11.827735
     56          6           0       -7.152631   -0.801445  -12.584842
     57          6           0       -6.378178    0.347149  -11.928744
     58          7           0       -5.477327   -0.153827  -10.869502
     59          6           0       -4.816554    0.765882  -10.045110
     60          7           0       -5.385534    1.893390   -9.765275
     61          7           0       -3.594956    0.339068   -9.559516
     62          8           0       -7.199843   -3.872761  -11.774772
     63          1           0       -6.574181   -4.621983  -11.756119
     64          1           0       -6.944689   -0.665527   -9.553124
     65          1           0       -9.097990   -2.562816  -10.211922
     66          1           0       -8.889295   -2.057414  -12.493116
     67          1           0       -9.066171   -0.542417  -11.602789
     68          1           0       -6.465942   -1.619490  -12.846244
     69          1           0       -7.530374   -0.423171  -13.541936
     70          1           0       -5.791899    0.881758  -12.688431
     71          1           0       -7.065772    1.060974  -11.476446
     72          1           0       -4.855821   -0.875607  -11.223071
     73          1           0       -4.780142    2.437375   -9.148702
     74          1           0       -3.403436    0.669475   -8.618879
     75          1           0       -3.379072   -0.645980   -9.658644
 ---------------------------------------------------------------------

 SCF Done:  E(RB3LYP) =  -1917.49586248     A.U. after    3 cycles

 Alpha  occ. eigenvalues --  -19.32136 -19.26830 -19.25095 -19.24869 -19.24154
 Alpha  occ. eigenvalues --  -19.22304 -19.20840 -14.55580 -14.49384 -14.48382
 Alpha  occ. eigenvalues --  -14.47185 -14.45990 -14.45171 -14.44967 -14.43778
 Alpha  occ. eigenvalues --  -14.37965 -10.44700 -10.42721 -10.42348 -10.40977
 Alpha  occ. eigenvalues --  -10.39807 -10.38960 -10.38560 -10.38016 -10.35116
 Alpha  occ. eigenvalues --  -10.35111 -10.34637 -10.33602 -10.30300 -10.29869
 Alpha  occ. eigenvalues --  -10.28866 -10.28608 -10.28229 -10.27931 -10.27870
 Alpha  occ. eigenvalues --  -10.27821 -10.27519 -10.27471 -10.27438  -1.23246
 Alpha  occ. eigenvalues --   -1.17523  -1.16659  -1.15590  -1.14113  -1.14032
 Alpha  occ. eigenvalues --   -1.12652  -1.10680  -1.07342  -1.06015  -1.04450
 Alpha  occ. eigenvalues --   -1.03512  -1.02542  -0.99774  -0.98189  -0.94448
 Alpha  occ. eigenvalues --   -0.93627  -0.92678  -0.90179  -0.88689  -0.88021
 Alpha  occ. eigenvalues --   -0.84493  -0.83776  -0.83056  -0.81375  -0.78647
 Alpha  occ. eigenvalues --   -0.77241  -0.76082  -0.73875  -0.73078  -0.72300
 Alpha  occ. eigenvalues --   -0.71468  -0.70839  -0.69480  -0.69243  -0.68905
 Alpha  occ. eigenvalues --   -0.68763  -0.68303  -0.67867  -0.67264  -0.66482
 Alpha  occ. eigenvalues --   -0.64832  -0.63880  -0.63046  -0.62974  -0.62299
 Alpha  occ. eigenvalues --   -0.61454  -0.60906  -0.60822  -0.60170  -0.59486
 Alpha  occ. eigenvalues --   -0.59306  -0.58921  -0.58662  -0.57518  -0.56408
 Alpha  occ. eigenvalues --   -0.56250  -0.55985  -0.55426  -0.54931  -0.54802
 Alpha  occ. eigenvalues --   -0.54506  -0.54164  -0.53941  -0.53624  -0.53494
 Alpha  occ. eigenvalues --   -0.53266  -0.52912  -0.52154  -0.51736  -0.51165
 Alpha  occ. eigenvalues --   -0.51034  -0.50749  -0.50599  -0.50094  -0.49329
 Alpha  occ. eigenvalues --   -0.48991  -0.48649  -0.48392  -0.48034  -0.47315
 Alpha  occ. eigenvalues --   -0.47038  -0.46236  -0.46094  -0.45045  -0.44430
 Alpha  occ. eigenvalues --   -0.43976  -0.43085  -0.42829  -0.42665  -0.42580
 Alpha  occ. eigenvalues --   -0.40144  -0.40072  -0.39718  -0.39405  -0.39168
 Alpha  occ. eigenvalues --   -0.38615  -0.37777  -0.36811  -0.36221  -0.35773
 Alpha  occ. eigenvalues --   -0.35549  -0.34933  -0.34565  -0.33672  -0.33124
 Alpha  occ. eigenvalues --   -0.32204
 Alpha virt. eigenvalues --   -0.12077  -0.11856  -0.10542  -0.10407  -0.09383
 Alpha virt. eigenvalues --   -0.08967  -0.08843  -0.07238  -0.05664  -0.05093
 Alpha virt. eigenvalues --   -0.04696  -0.03295  -0.02659  -0.01595  -0.01321

 Mulliken charges:
               1
     1  N   -0.768048
     2  C   -0.111731
     3  C    0.657375
     4  O   -0.530700
     5  C   -0.441776
     6  C    0.628721
     7  N   -0.745128
     8  O   -0.529084
     9  H    0.430018
    10  H    0.237717
    11  H    0.230682
    12  H    0.204948
    13  H    0.370637
    14  H    0.366107
    15  H    0.409589
    16  H    0.445588
    17  N   -0.608145
    18  C   -0.086064
    19  C    0.617081
    20  O   -0.525040
    21  C   -0.363130
    22  C    0.168215
    23  C   -0.170368
    24  C   -0.210325
    25  C   -0.128973
    26  C   -0.139745
    27  C   -0.137004
    28  H    0.358617
    29  H    0.217153
    30  H    0.163509
    31  H    0.188959
    32  H    0.141391
    33  H    0.121834
    34  H    0.152943
    35  H    0.142386
    36  H    0.150457
    37  N   -0.664449
    38  C   -0.081978
    39  C    0.681947
    40  O   -0.616857
    41  C   -0.353031
    42  C    0.591402
    43  N   -0.717492
    44  O   -0.514083
    45  H    0.397785
    46  H    0.200323
    47  H    0.166235
    48  H    0.207087
    49  H    0.365791
    50  H    0.348856
    51  N   -0.596290
    52  C   -0.098886
    53  C    0.603620
    54  O   -0.502426
    55  C   -0.275896
    56  C   -0.299421
    57  C   -0.150520
    58  N   -0.651859
    59  C    0.617470
    60  N   -0.694832
    61  N   -0.745158
    62  O   -0.543652
    63  H    0.421781
    64  H    0.402823
    65  H    0.211571
    66  H    0.166135
    67  H    0.213457
    68  H    0.136360
    69  H    0.171491
    70  H    0.162531
    71  H    0.223350
    72  H    0.319045
    73  H    0.298548
    74  H    0.368585
    75  H    0.321969
 Sum of Mulliken charges =   1.00000

 Dipole moment (field-independent basis, Debye):
    X=            -35.8669    Y=            -12.4600    Z=            -38.3600  Tot=             53.9738
 Quadrupole moment (field-independent basis, Debye-Ang):
   XX=             57.6278   YY=           -139.2877   ZZ=            123.3259
   XY=             91.7658   XZ=            269.3839   YZ=            104.1797

 Normal termination of Gaussian 16 at Mon Jun  6 02:47:57 2022.
