 Gaussian 16, Revision C.01,
 Gaussian 16:  ES64L-G16RevC.01  3-Jul-2019

 ----------------------------------------------------------------------
 # B3LYP/6-31G* empiricaldispersion=gd3 guess=read geom=check nosymm in
 tegral(ultrafinegrid)
 ----------------------------------------------------------------------

 ------------------------------------------------------
 Candidate Structure: Conf:472 Charge calc in gas phase
 ------------------------------------------------------
 Structure from the checkpoint file:  "conf-472.chk"
 Charge =  1 Multiplicity = 1

                          Input orientation:
 ---------------------------------------------------------------------
 Center     Atomic      Atomic             Coordinates (Angstroms)
 Number     Number       Type             X           Y           Z
 ---------------------------------------------------------------------
      1          7           0       -6.059721   -1.245237  -11.738206
      2          6           0       -5.341441   -2.002615  -10.652572
      3          6           0       -6.346669   -3.071313  -10.180901
      4          8           0       -7.016491   -3.652614  -11.032295
      5          6           0       -4.826087   -1.048209   -9.580434
      6          6           0       -4.031761    0.135807  -10.134776
      7          7           0       -3.443071    0.903460   -9.198391
      8          8           0       -3.965490    0.371115  -11.346661
      9          1           0       -5.390358   -0.530984  -12.091051
     10          1           0       -4.507994   -2.515769  -11.142576
     11          1           0       -5.655118   -0.663617   -8.986126
     12          1           0       -4.190756   -1.606816   -8.883301
     13          1           0       -2.928003    1.722338   -9.494988
     14          1           0       -3.569365    0.733869   -8.207174
     15          1           0       -6.375256   -1.902822  -12.458757
     16          1           0       -6.906320   -0.786704  -11.320426
     17          7           0       -6.469514   -3.252814   -8.850147
     18          6           0       -7.245392   -4.335893   -8.248861
     19          6           0       -8.328800   -3.794418   -7.284488
     20          8           0       -8.512997   -4.336840   -6.197543
     21          6           0       -6.292346   -5.333178   -7.535455
     22          6           0       -5.311262   -4.651184   -6.601026
     23          6           0       -4.104054   -4.129711   -7.096554
     24          6           0       -5.596542   -4.481822   -5.239127
     25          6           0       -3.229351   -3.421620   -6.268469
     26          6           0       -4.720169   -3.782804   -4.405942
     27          6           0       -3.541815   -3.236255   -4.920634
     28          1           0       -5.862054   -2.749449   -8.215344
     29          1           0       -7.750863   -4.848703   -9.073938
     30          1           0       -6.906883   -6.056976   -6.996367
     31          1           0       -5.748758   -5.871034   -8.319744
     32          1           0       -3.836739   -4.303182   -8.137509
     33          1           0       -6.507804   -4.911945   -4.838976
     34          1           0       -2.295909   -3.036264   -6.670020
     35          1           0       -4.952848   -3.676624   -3.349446
     36          1           0       -2.861341   -2.693278   -4.271378
     37          7           0       -9.078287   -2.714511   -7.658688
     38          6           0       -9.172216   -2.045120   -8.946808
     39          6           0       -8.347252   -0.747247   -9.050923
     40          8           0       -8.084029   -0.285025  -10.178061
     41          6           0      -10.655362   -1.749083   -9.297375
     42          6           0      -11.305871   -0.906271   -8.203750
     43          7           0      -12.260586   -1.513445   -7.460247
     44          8           0      -10.927495    0.245320   -7.999003
     45          1           0       -9.695890   -2.388951   -6.905585
     46          1           0       -8.801528   -2.700323   -9.735908
     47          1           0      -11.168717   -2.702254   -9.457927
     48          1           0      -10.677883   -1.179823  -10.230635
     49          1           0      -12.536930   -1.064303   -6.595949
     50          1           0      -12.465176   -2.497212   -7.556358
     51          7           0       -7.937365   -0.167148   -7.914168
     52          6           0       -7.432057    1.192069   -7.869362
     53          6           0       -6.078220    1.222623   -7.150106
     54          8           0       -5.436198    0.235611   -6.855916
     55          6           0       -8.471944    2.197275   -7.305989
     56          6           0       -8.705350    2.212822   -5.782630
     57          6           0       -9.364850    0.968722   -5.175364
     58          7           0       -8.403420   -0.142714   -5.068790
     59          6           0       -8.866056   -1.417705   -4.717449
     60          7           0      -10.090880   -1.746053   -4.965594
     61          7           0       -7.893510   -2.226564   -4.156074
     62          8           0       -5.562659    2.442511   -6.906870
     63          1           0       -6.181973    3.147101   -7.164500
     64          1           0       -8.192576   -0.548508   -7.002273
     65          1           0       -7.229264    1.475214   -8.910262
     66          1           0       -8.172752    3.208422   -7.621674
     67          1           0       -9.411758    1.987616   -7.822368
     68          1           0       -7.765108    2.432899   -5.253782
     69          1           0       -9.366001    3.061702   -5.572473
     70          1           0       -9.771562    1.211366   -4.184598
     71          1           0      -10.193541    0.637649   -5.801527
     72          1           0       -7.567178    0.120337   -4.555085
     73          1           0      -10.248424   -2.717700   -4.693535
     74          1           0       -8.072119   -3.214500   -4.298087
     75          1           0       -6.929763   -2.002974   -4.383359
 ---------------------------------------------------------------------

 SCF Done:  E(RB3LYP) =  -1917.49643951     A.U. after    3 cycles

 Alpha  occ. eigenvalues --  -19.32025 -19.26318 -19.25379 -19.25041 -19.24610
 Alpha  occ. eigenvalues --  -19.22905 -19.21419 -14.55822 -14.49786 -14.48065
 Alpha  occ. eigenvalues --  -14.47733 -14.46887 -14.45512 -14.45239 -14.43664
 Alpha  occ. eigenvalues --  -14.38102 -10.44560 -10.42891 -10.42672 -10.41494
 Alpha  occ. eigenvalues --  -10.40516 -10.39452 -10.39132 -10.38044 -10.36048
 Alpha  occ. eigenvalues --  -10.35818 -10.35438 -10.33725 -10.30842 -10.30566
 Alpha  occ. eigenvalues --  -10.30277 -10.29598 -10.29571 -10.29235 -10.28928
 Alpha  occ. eigenvalues --  -10.28726 -10.28427 -10.28366 -10.28235  -1.22767
 Alpha  occ. eigenvalues --   -1.17901  -1.16622  -1.16153  -1.14854  -1.14349
 Alpha  occ. eigenvalues --   -1.13203  -1.10964  -1.07506  -1.06526  -1.05119
 Alpha  occ. eigenvalues --   -1.03282  -1.03257  -1.00302  -0.98389  -0.95272
 Alpha  occ. eigenvalues --   -0.93709  -0.92987  -0.91040  -0.89290  -0.88687
 Alpha  occ. eigenvalues --   -0.84938  -0.84420  -0.83992  -0.81749  -0.79239
 Alpha  occ. eigenvalues --   -0.77592  -0.76806  -0.74245  -0.73360  -0.72530
 Alpha  occ. eigenvalues --   -0.71953  -0.71462  -0.70497  -0.70037  -0.69979
 Alpha  occ. eigenvalues --   -0.69394  -0.68711  -0.68542  -0.67599  -0.67079
 Alpha  occ. eigenvalues --   -0.66164  -0.64957  -0.63513  -0.63144  -0.62873
 Alpha  occ. eigenvalues --   -0.62272  -0.61195  -0.60868  -0.60607  -0.59731
 Alpha  occ. eigenvalues --   -0.59337  -0.58870  -0.58448  -0.57917  -0.56718
 Alpha  occ. eigenvalues --   -0.56592  -0.56460  -0.55906  -0.55461  -0.55316
 Alpha  occ. eigenvalues --   -0.55163  -0.54829  -0.54423  -0.54127  -0.53653
 Alpha  occ. eigenvalues --   -0.53292  -0.53200  -0.52647  -0.52320  -0.51897
 Alpha  occ. eigenvalues --   -0.51860  -0.51215  -0.50968  -0.50348  -0.50317
 Alpha  occ. eigenvalues --   -0.49504  -0.49165  -0.48865  -0.48564  -0.48018
 Alpha  occ. eigenvalues --   -0.47765  -0.47038  -0.46933  -0.45758  -0.45355
 Alpha  occ. eigenvalues --   -0.44463  -0.44037  -0.43931  -0.43486  -0.43349
 Alpha  occ. eigenvalues --   -0.40511  -0.40140  -0.39826  -0.39684  -0.39461
 Alpha  occ. eigenvalues --   -0.38771  -0.38398  -0.37142  -0.36605  -0.36120
 Alpha  occ. eigenvalues --   -0.35866  -0.35436  -0.35120  -0.34638  -0.33938
 Alpha  occ. eigenvalues --   -0.32508
 Alpha virt. eigenvalues --   -0.12414  -0.12023  -0.11135  -0.10800  -0.10126
 Alpha virt. eigenvalues --   -0.09863  -0.09676  -0.07764  -0.06319  -0.05314
 Alpha virt. eigenvalues --   -0.04986  -0.02962  -0.02477  -0.01757  -0.01378

 Mulliken charges:
               1
     1  N   -0.768837
     2  C   -0.112812
     3  C    0.636032
     4  O   -0.525150
     5  C   -0.444997
     6  C    0.622562
     7  N   -0.744421
     8  O   -0.533726
     9  H    0.430574
    10  H    0.230458
    11  H    0.228310
    12  H    0.209267
    13  H    0.369913
    14  H    0.381862
    15  H    0.409659
    16  H    0.446422
    17  N   -0.610999
    18  C   -0.094863
    19  C    0.621798
    20  O   -0.523440
    21  C   -0.344507
    22  C    0.134911
    23  C   -0.216022
    24  C   -0.184207
    25  C   -0.125825
    26  C   -0.149659
    27  C   -0.123977
    28  H    0.372157
    29  H    0.219344
    30  H    0.196737
    31  H    0.168350
    32  H    0.126390
    33  H    0.164893
    34  H    0.145003
    35  H    0.157543
    36  H    0.154589
    37  N   -0.657019
    38  C   -0.081611
    39  C    0.670572
    40  O   -0.615124
    41  C   -0.353197
    42  C    0.580612
    43  N   -0.715192
    44  O   -0.513415
    45  H    0.389196
    46  H    0.203821
    47  H    0.168798
    48  H    0.210441
    49  H    0.370059
    50  H    0.350555
    51  N   -0.587729
    52  C   -0.119895
    53  C    0.627350
    54  O   -0.486304
    55  C   -0.317083
    56  C   -0.299090
    57  C   -0.138716
    58  N   -0.657131
    59  C    0.602019
    60  N   -0.688084
    61  N   -0.758611
    62  O   -0.560000
    63  H    0.434017
    64  H    0.411793
    65  H    0.207390
    66  H    0.139659
    67  H    0.235314
    68  H    0.136127
    69  H    0.176558
    70  H    0.167698
    71  H    0.218716
    72  H    0.330393
    73  H    0.298079
    74  H    0.364110
    75  H    0.331594
 Sum of Mulliken charges =   1.00000

 Dipole moment (field-independent basis, Debye):
    X=            -31.9395    Y=             -4.4450    Z=            -40.4030  Tot=             51.6943
 Quadrupole moment (field-independent basis, Debye-Ang):
   XX=             25.8894   YY=           -187.9763   ZZ=            142.7752
   XY=             37.3988   XZ=            263.5678   YZ=             45.1049

 Normal termination of Gaussian 16 at Mon Jun  6 02:42:16 2022.
