 Gaussian 16, Revision C.01,
 Gaussian 16:  ES64L-G16RevC.01  3-Jul-2019

 ----------------------------------------------------------------------
 # B3LYP/6-31G* empiricaldispersion=gd3 guess=read geom=check nosymm in
 tegral(ultrafinegrid)
 ----------------------------------------------------------------------

 ------------------------------------------------------
 Candidate Structure: Conf:156 Charge calc in gas phase
 ------------------------------------------------------
 Structure from the checkpoint file:  "conf-156.chk"
 Charge =  1 Multiplicity = 1

                          Input orientation:
 ---------------------------------------------------------------------
 Center     Atomic      Atomic             Coordinates (Angstroms)
 Number     Number       Type             X           Y           Z
 ---------------------------------------------------------------------
      1          7           0      -10.031911   -1.462313   -9.947604
      2          6           0       -8.898066   -2.454833   -9.883853
      3          6           0       -8.927093   -2.958199   -8.436723
      4          8           0      -10.038769   -3.173702   -7.948949
      5          6           0       -7.614451   -1.818555  -10.397076
      6          6           0       -7.789715   -1.218604  -11.797586
      7          7           0       -6.658925   -0.770613  -12.378370
      8          8           0       -8.894276   -1.165015  -12.349472
      9          1           0      -10.106553   -1.157604  -10.936966
     10          1           0       -9.188869   -3.295051  -10.521926
     11          1           0       -7.260534   -1.043351   -9.714604
     12          1           0       -6.833884   -2.586646  -10.436695
     13          1           0       -6.735469   -0.330688  -13.286590
     14          1           0       -5.816350   -0.632540  -11.835361
     15          1           0      -10.879928   -1.919680   -9.593590
     16          1           0       -9.803984   -0.670374   -9.307983
     17          7           0       -7.769136   -3.087793   -7.764256
     18          6           0       -7.744489   -3.759176   -6.465179
     19          6           0       -6.992949   -2.898189   -5.438914
     20          8           0       -6.054423   -3.368106   -4.801502
     21          6           0       -7.144183   -5.177616   -6.596698
     22          6           0       -7.805388   -5.927189   -7.731092
     23          6           0       -9.061579   -6.522054   -7.563428
     24          6           0       -7.217991   -5.948769   -9.003559
     25          6           0       -9.717984   -7.119181   -8.640173
     26          6           0       -7.870819   -6.542972  -10.085671
     27          6           0       -9.127041   -7.126896   -9.905832
     28          1           0       -6.863871   -2.852709   -8.165110
     29          1           0       -8.790243   -3.848210   -6.156934
     30          1           0       -6.065643   -5.097847   -6.762906
     31          1           0       -7.270468   -5.688853   -5.637644
     32          1           0       -9.532353   -6.511751   -6.583085
     33          1           0       -6.233704   -5.504931   -9.143971
     34          1           0      -10.690131   -7.580166   -8.490651
     35          1           0       -7.393847   -6.564368  -11.062119
     36          1           0       -9.635636   -7.596742  -10.742841
     37          7           0       -7.392772   -1.602786   -5.269603
     38          6           0       -8.465473   -0.884531   -5.939408
     39          6           0       -8.036375   -0.041647   -7.164441
     40          8           0       -8.857683    0.214828   -8.064737
     41          6           0       -9.220286    0.034969   -4.950312
     42          6           0       -8.340706    1.097199   -4.284167
     43          7           0       -9.011323    2.067972   -3.619370
     44          8           0       -7.111709    1.068890   -4.345293
     45          1           0       -6.805738   -1.054780   -4.645005
     46          1           0       -9.207191   -1.592155   -6.309214
     47          1           0       -9.655182   -0.596190   -4.165378
     48          1           0      -10.052785    0.511870   -5.480302
     49          1           0       -8.475571    2.733261   -3.077082
     50          1           0      -10.014194    2.055048   -3.501994
     51          7           0       -6.794421    0.472948   -7.167087
     52          6           0       -6.467512    1.671987   -7.924221
     53          6           0       -5.986111    1.416720   -9.349540
     54          8           0       -5.563695    0.374101   -9.825425
     55          6           0       -5.468849    2.576386   -7.141884
     56          6           0       -4.307659    1.895914   -6.395206
     57          6           0       -3.338636    0.989548   -7.180280
     58          7           0       -3.829815   -0.316929   -7.614568
     59          6           0       -4.205885   -1.283647   -6.712806
     60          7           0       -4.229344   -1.049858   -5.450802
     61          7           0       -4.594381   -2.499034   -7.357905
     62          8           0       -6.081429    2.543946  -10.067353
     63          1           0       -5.727916    2.372222  -10.960385
     64          1           0       -6.205648    0.262122   -6.366248
     65          1           0       -7.394475    2.239952   -8.061253
     66          1           0       -5.092743    3.326558   -7.845873
     67          1           0       -6.062767    3.114051   -6.395562
     68          1           0       -3.705917    2.711951   -5.974677
     69          1           0       -4.678500    1.336977   -5.532415
     70          1           0       -2.973042    1.501760   -8.078898
     71          1           0       -2.472746    0.809599   -6.535610
     72          1           0       -4.281028   -0.362008   -8.518137
     73          1           0       -4.429664   -1.892995   -4.913778
     74          1           0       -4.656663   -3.249750   -6.674425
     75          1           0       -3.931038   -2.758154   -8.085706
 ---------------------------------------------------------------------

 SCF Done:  E(RB3LYP) =  -1917.49564666     A.U. after    1 cycles

 Alpha  occ. eigenvalues --  -19.32570 -19.27802 -19.25051 -19.24851 -19.24404
 Alpha  occ. eigenvalues --  -19.22666 -19.21908 -14.55714 -14.48652 -14.47896
 Alpha  occ. eigenvalues --  -14.47887 -14.46529 -14.46236 -14.43966 -14.42402
 Alpha  occ. eigenvalues --  -14.36398 -10.45406 -10.42432 -10.41932 -10.41493
 Alpha  occ. eigenvalues --  -10.40445 -10.39424 -10.38645 -10.36331 -10.35760
 Alpha  occ. eigenvalues --  -10.35665 -10.34051 -10.33304 -10.31767 -10.29945
 Alpha  occ. eigenvalues --  -10.29432 -10.28511 -10.28093 -10.27473 -10.27326
 Alpha  occ. eigenvalues --  -10.27019 -10.26983 -10.26929 -10.26467  -1.23950
 Alpha  occ. eigenvalues --   -1.17251  -1.16409  -1.16257  -1.14852  -1.14452
 Alpha  occ. eigenvalues --   -1.13856  -1.10697  -1.05868  -1.05349  -1.04900
 Alpha  occ. eigenvalues --   -1.03110  -1.02654  -1.01373  -0.97007  -0.93964
 Alpha  occ. eigenvalues --   -0.92376  -0.92270  -0.90716  -0.88989  -0.88054
 Alpha  occ. eigenvalues --   -0.84321  -0.83418  -0.82567  -0.81017  -0.79596
 Alpha  occ. eigenvalues --   -0.77984  -0.75834  -0.74146  -0.72776  -0.72068
 Alpha  occ. eigenvalues --   -0.71405  -0.70954  -0.69677  -0.69278  -0.68903
 Alpha  occ. eigenvalues --   -0.68663  -0.68518  -0.66843  -0.66268  -0.65803
 Alpha  occ. eigenvalues --   -0.65000  -0.64573  -0.63442  -0.62908  -0.62514
 Alpha  occ. eigenvalues --   -0.62188  -0.61364  -0.60742  -0.60232  -0.59432
 Alpha  occ. eigenvalues --   -0.58994  -0.58682  -0.58545  -0.57613  -0.56983
 Alpha  occ. eigenvalues --   -0.56614  -0.56161  -0.55608  -0.54995  -0.54709
 Alpha  occ. eigenvalues --   -0.54094  -0.53872  -0.53580  -0.53428  -0.53315
 Alpha  occ. eigenvalues --   -0.52958  -0.52623  -0.52431  -0.51641  -0.51560
 Alpha  occ. eigenvalues --   -0.50941  -0.50216  -0.50177  -0.49940  -0.49585
 Alpha  occ. eigenvalues --   -0.49213  -0.48682  -0.48248  -0.48125  -0.47905
 Alpha  occ. eigenvalues --   -0.47334  -0.47135  -0.45880  -0.45007  -0.44357
 Alpha  occ. eigenvalues --   -0.43952  -0.43164  -0.42503  -0.42236  -0.42147
 Alpha  occ. eigenvalues --   -0.41233  -0.40297  -0.39581  -0.39001  -0.38741
 Alpha  occ. eigenvalues --   -0.38499  -0.38443  -0.37543  -0.36539  -0.36152
 Alpha  occ. eigenvalues --   -0.35292  -0.35138  -0.33388  -0.33127  -0.32564
 Alpha  occ. eigenvalues --   -0.30722
 Alpha virt. eigenvalues --   -0.12676  -0.11793  -0.11159  -0.10207  -0.09043
 Alpha virt. eigenvalues --   -0.08484  -0.08424  -0.08339  -0.05582  -0.04742
 Alpha virt. eigenvalues --   -0.03908  -0.03196  -0.02382  -0.01294  -0.01032

 Mulliken charges:
               1
     1  N   -0.765470
     2  C   -0.114118
     3  C    0.670019
     4  O   -0.542511
     5  C   -0.439257
     6  C    0.624117
     7  N   -0.745955
     8  O   -0.531209
     9  H    0.427961
    10  H    0.239411
    11  H    0.235871
    12  H    0.202849
    13  H    0.364330
    14  H    0.372552
    15  H    0.410563
    16  H    0.439253
    17  N   -0.627209
    18  C   -0.092940
    19  C    0.641456
    20  O   -0.520817
    21  C   -0.357565
    22  C    0.165428
    23  C   -0.166164
    24  C   -0.200393
    25  C   -0.127353
    26  C   -0.140799
    27  C   -0.134435
    28  H    0.377174
    29  H    0.215763
    30  H    0.157426
    31  H    0.188738
    32  H    0.138709
    33  H    0.113296
    34  H    0.150489
    35  H    0.140230
    36  H    0.148541
    37  N   -0.623167
    38  C   -0.071831
    39  C    0.644326
    40  O   -0.608758
    41  C   -0.390856
    42  C    0.605508
    43  N   -0.736037
    44  O   -0.519402
    45  H    0.382568
    46  H    0.198770
    47  H    0.207901
    48  H    0.191301
    49  H    0.365380
    50  H    0.357032
    51  N   -0.593568
    52  C   -0.046639
    53  C    0.607752
    54  O   -0.508565
    55  C   -0.304014
    56  C   -0.315834
    57  C   -0.129454
    58  N   -0.620768
    59  C    0.560620
    60  N   -0.664765
    61  N   -0.818284
    62  O   -0.532476
    63  H    0.425358
    64  H    0.407838
    65  H    0.203877
    66  H    0.172433
    67  H    0.178942
    68  H    0.160474
    69  H    0.221133
    70  H    0.137577
    71  H    0.186570
    72  H    0.350181
    73  H    0.315777
    74  H    0.355438
    75  H    0.329681
 Sum of Mulliken charges =   1.00000

 Dipole moment (field-independent basis, Debye):
    X=            -38.9319    Y=             -1.8108    Z=            -42.3948  Tot=             57.5873
 Quadrupole moment (field-independent basis, Debye-Ang):
   XX=            118.6890   YY=           -184.4288   ZZ=            191.1017
   XY=             22.1774   XZ=            312.0615   YZ=             34.3840

 Normal termination of Gaussian 16 at Mon Jun  6 02:41:22 2022.
