 Gaussian 16, Revision C.01,
 Gaussian 16:  ES64L-G16RevC.01  3-Jul-2019

 ----------------------------------------------------------------------
 # B3LYP/6-31G* empiricaldispersion=gd3 guess=read geom=check nosymm in
 tegral(ultrafinegrid)
 ----------------------------------------------------------------------

 ------------------------------------------------------
 Candidate Structure: Conf:669 Charge calc in gas phase
 ------------------------------------------------------
 Structure from the checkpoint file:  "conf-669.chk"
 Charge =  1 Multiplicity = 1

                          Input orientation:
 ---------------------------------------------------------------------
 Center     Atomic      Atomic             Coordinates (Angstroms)
 Number     Number       Type             X           Y           Z
 ---------------------------------------------------------------------
      1          7           0       -9.900933    1.472065   -9.554328
      2          6           0       -9.881137    0.047890  -10.061470
      3          6           0      -10.076877   -0.817291   -8.799946
      4          8           0      -11.068632   -0.525248   -8.126362
      5          6           0       -8.673413   -0.120867  -10.976859
      6          6           0       -8.776457    0.800283  -12.193932
      7          7           0       -8.153616    0.384370  -13.311190
      8          8           0       -9.375109    1.882145  -12.129869
      9          1           0      -10.757004    1.624341   -9.010749
     10          1           0      -10.804924   -0.074100  -10.635137
     11          1           0       -7.765572    0.145003  -10.433216
     12          1           0       -8.569759   -1.168531  -11.269090
     13          1           0       -8.147644    0.994275  -14.119196
     14          1           0       -7.646161   -0.487400  -13.360087
     15          1           0       -9.061903    1.606872   -8.940384
     16          1           0       -9.847167    2.075188  -10.406733
     17          7           0       -9.189595   -1.774910   -8.458197
     18          6           0       -9.498109   -2.700635   -7.359552
     19          6           0       -8.741042   -2.485609   -6.027647
     20          8           0       -8.525969   -3.466843   -5.313299
     21          6           0       -9.406545   -4.174310   -7.826349
     22          6           0       -8.025139   -4.665442   -8.211134
     23          6           0       -7.525746   -4.460365   -9.502873
     24          6           0       -7.229904   -5.371998   -7.293769
     25          6           0       -6.257793   -4.917956   -9.867836
     26          6           0       -5.969345   -5.845554   -7.658958
     27          6           0       -5.474678   -5.612671   -8.946019
     28          1           0       -8.309908   -1.889909   -8.963094
     29          1           0      -10.544415   -2.497087   -7.104579
     30          1           0       -9.807492   -4.788761   -7.017538
     31          1           0      -10.088538   -4.273155   -8.678423
     32          1           0       -8.139046   -3.948377  -10.240780
     33          1           0       -7.615643   -5.560985   -6.297513
     34          1           0       -5.889779   -4.739811  -10.874059
     35          1           0       -5.380354   -6.414056   -6.944058
     36          1           0       -4.494959   -5.985519   -9.231048
     37          7           0       -8.406601   -1.243032   -5.576217
     38          6           0       -8.439359    0.053648   -6.226746
     39          6           0       -7.372766    0.217817   -7.318204
     40          8           0       -7.512576    1.105794   -8.188735
     41          6           0       -8.248695    1.188484   -5.174740
     42          6           0       -7.036893    0.889185   -4.298299
     43          7           0       -5.846566    1.411992   -4.677057
     44          8           0       -7.158835    0.116467   -3.346966
     45          1           0       -8.032334   -1.245689   -4.627633
     46          1           0       -9.411775    0.220793   -6.691562
     47          1           0       -9.129095    1.217617   -4.529124
     48          1           0       -8.168692    2.138154   -5.712355
     49          1           0       -5.016309    0.922105   -4.351815
     50          1           0       -5.766193    1.967378   -5.516244
     51          7           0       -6.286824   -0.559002   -7.249531
     52          6           0       -5.168567   -0.385057   -8.154547
     53          6           0       -5.500999   -0.956047   -9.538363
     54          8           0       -6.477868   -1.629815   -9.786939
     55          6           0       -3.891005   -1.048522   -7.588781
     56          6           0       -3.923604   -2.596642   -7.574406
     57          6           0       -4.115941   -3.184732   -6.176102
     58          7           0       -5.400695   -2.799831   -5.555116
     59          6           0       -5.353160   -2.219256   -4.267819
     60          7           0       -4.452801   -1.325336   -4.029072
     61          7           0       -6.309298   -2.687539   -3.395231
     62          8           0       -4.623346   -0.682972  -10.519414
     63          1           0       -3.875675   -0.153730  -10.191603
     64          1           0       -6.188031   -1.305106   -6.541407
     65          1           0       -5.000678    0.692432   -8.283848
     66          1           0       -3.039710   -0.694299   -8.182583
     67          1           0       -3.740418   -0.664225   -6.573104
     68          1           0       -4.706242   -2.985555   -8.236659
     69          1           0       -2.977190   -2.984613   -7.968782
     70          1           0       -4.065204   -4.277115   -6.237837
     71          1           0       -3.317074   -2.841349   -5.515611
     72          1           0       -6.099520   -3.532206   -5.640147
     73          1           0       -4.508318   -1.035064   -3.052184
     74          1           0       -6.582224   -2.031478   -2.673692
     75          1           0       -7.087923   -3.216644   -3.779656
 ---------------------------------------------------------------------

 SCF Done:  E(RB3LYP) =  -1917.49835862     A.U. after    3 cycles

 Alpha  occ. eigenvalues --  -19.32472 -19.26908 -19.25950 -19.25367 -19.25176
 Alpha  occ. eigenvalues --  -19.23227 -19.22070 -14.56082 -14.49490 -14.48868
 Alpha  occ. eigenvalues --  -14.48474 -14.47271 -14.45742 -14.44001 -14.42249
 Alpha  occ. eigenvalues --  -14.36914 -10.44877 -10.42963 -10.42813 -10.42168
 Alpha  occ. eigenvalues --  -10.40886 -10.39757 -10.39489 -10.36809 -10.36591
 Alpha  occ. eigenvalues --  -10.36506 -10.35209 -10.33626 -10.31670 -10.30659
 Alpha  occ. eigenvalues --  -10.30274 -10.29166 -10.28757 -10.28291 -10.27942
 Alpha  occ. eigenvalues --  -10.27739 -10.27675 -10.27609 -10.27394  -1.23278
 Alpha  occ. eigenvalues --   -1.17898  -1.17064  -1.16947  -1.15246  -1.14921
 Alpha  occ. eigenvalues --   -1.13867  -1.11141  -1.06309  -1.05840  -1.05452
 Alpha  occ. eigenvalues --   -1.03797  -1.03650  -1.00826  -0.97091  -0.94483
 Alpha  occ. eigenvalues --   -0.92641  -0.92370  -0.91580  -0.89633  -0.88718
 Alpha  occ. eigenvalues --   -0.84641  -0.83936  -0.83139  -0.81614  -0.79564
 Alpha  occ. eigenvalues --   -0.77345  -0.76377  -0.74729  -0.73646  -0.73123
 Alpha  occ. eigenvalues --   -0.72239  -0.71467  -0.70352  -0.70018  -0.69638
 Alpha  occ. eigenvalues --   -0.69229  -0.69085  -0.67655  -0.67004  -0.66627
 Alpha  occ. eigenvalues --   -0.66266  -0.65367  -0.63921  -0.63746  -0.62835
 Alpha  occ. eigenvalues --   -0.62371  -0.61454  -0.61130  -0.60258  -0.60067
 Alpha  occ. eigenvalues --   -0.59843  -0.59102  -0.58886  -0.57784  -0.57391
 Alpha  occ. eigenvalues --   -0.56708  -0.56438  -0.55729  -0.55503  -0.55433
 Alpha  occ. eigenvalues --   -0.54771  -0.54449  -0.54092  -0.54027  -0.53567
 Alpha  occ. eigenvalues --   -0.53307  -0.53026  -0.52494  -0.52388  -0.51742
 Alpha  occ. eigenvalues --   -0.51171  -0.51128  -0.50620  -0.50552  -0.50298
 Alpha  occ. eigenvalues --   -0.49813  -0.49169  -0.48821  -0.48046  -0.47951
 Alpha  occ. eigenvalues --   -0.47530  -0.47254  -0.47130  -0.45319  -0.44828
 Alpha  occ. eigenvalues --   -0.44045  -0.43839  -0.43288  -0.42860  -0.42587
 Alpha  occ. eigenvalues --   -0.41220  -0.40932  -0.40138  -0.40080  -0.39848
 Alpha  occ. eigenvalues --   -0.39095  -0.38797  -0.37526  -0.36667  -0.36431
 Alpha  occ. eigenvalues --   -0.35916  -0.35200  -0.34864  -0.33694  -0.33187
 Alpha  occ. eigenvalues --   -0.31056
 Alpha virt. eigenvalues --   -0.12928  -0.12203  -0.11675  -0.10534  -0.10291
 Alpha virt. eigenvalues --   -0.09275  -0.09056  -0.08572  -0.06875  -0.05774
 Alpha virt. eigenvalues --   -0.04349  -0.03494  -0.02670  -0.01885  -0.01324

 Mulliken charges:
               1
     1  N   -0.771407
     2  C   -0.106206
     3  C    0.611439
     4  O   -0.521943
     5  C   -0.418042
     6  C    0.641702
     7  N   -0.734945
     8  O   -0.535885
     9  H    0.406715
    10  H    0.231389
    11  H    0.234242
    12  H    0.198449
    13  H    0.374947
    14  H    0.368111
    15  H    0.428872
    16  H    0.432525
    17  N   -0.651820
    18  C   -0.087655
    19  C    0.629882
    20  O   -0.526912
    21  C   -0.351538
    22  C    0.147772
    23  C   -0.173391
    24  C   -0.197994
    25  C   -0.123856
    26  C   -0.139379
    27  C   -0.136830
    28  H    0.420838
    29  H    0.230436
    30  H    0.194508
    31  H    0.163435
    32  H    0.114847
    33  H    0.165912
    34  H    0.141535
    35  H    0.151855
    36  H    0.148309
    37  N   -0.650210
    38  C   -0.059780
    39  C    0.634398
    40  O   -0.611882
    41  C   -0.377158
    42  C    0.586440
    43  N   -0.729785
    44  O   -0.523053
    45  H    0.383762
    46  H    0.195510
    47  H    0.211943
    48  H    0.176283
    49  H    0.378376
    50  H    0.340094
    51  N   -0.614929
    52  C   -0.100349
    53  C    0.649284
    54  O   -0.475522
    55  C   -0.320526
    56  C   -0.306118
    57  C   -0.137923
    58  N   -0.668350
    59  C    0.591601
    60  N   -0.677265
    61  N   -0.772593
    62  O   -0.552632
    63  H    0.433517
    64  H    0.439195
    65  H    0.179863
    66  H    0.145768
    67  H    0.214237
    68  H    0.175474
    69  H    0.161170
    70  H    0.156817
    71  H    0.200923
    72  H    0.352038
    73  H    0.293927
    74  H    0.357856
    75  H    0.359679
 Sum of Mulliken charges =   1.00000

 Dipole moment (field-independent basis, Debye):
    X=            -34.6463    Y=             -1.1297    Z=            -45.4313  Tot=             57.1458
 Quadrupole moment (field-independent basis, Debye-Ang):
   XX=             56.2472   YY=           -202.1938   ZZ=            233.5508
   XY=             -0.2295   XZ=            331.2619   YZ=             12.6894

 Normal termination of Gaussian 16 at Mon Jun  6 02:42:12 2022.
