 Gaussian 16, Revision C.01,
 Gaussian 16:  ES64L-G16RevC.01  3-Jul-2019

 ----------------------------------------------------------------------
 # B3LYP/6-31G* empiricaldispersion=gd3 guess=read geom=check nosymm in
 tegral(ultrafinegrid)
 ----------------------------------------------------------------------

 ------------------------------------------------------
 Candidate Structure: Conf:231 Charge calc in gas phase
 ------------------------------------------------------
 Structure from the checkpoint file:  "conf-231.chk"
 Charge =  1 Multiplicity = 1

                          Input orientation:
 ---------------------------------------------------------------------
 Center     Atomic      Atomic             Coordinates (Angstroms)
 Number     Number       Type             X           Y           Z
 ---------------------------------------------------------------------
      1          7           0       -4.498764   -1.274861   -7.054434
      2          6           0       -4.367751   -1.329414   -8.552505
      3          6           0       -5.663280   -0.963634   -9.288258
      4          8           0       -5.644346   -0.096879  -10.147694
      5          6           0       -3.851823   -2.702026   -8.990911
      6          6           0       -2.481565   -3.010574   -8.388428
      7          7           0       -1.754120   -3.929732   -9.051996
      8          8           0       -2.095521   -2.463022   -7.350568
      9          1           0       -5.163379   -1.975745   -6.677273
     10          1           0       -3.649291   -0.552749   -8.817678
     11          1           0       -4.550537   -3.495782   -8.697993
     12          1           0       -3.821249   -2.725991  -10.084328
     13          1           0       -0.851407   -4.200123   -8.682919
     14          1           0       -2.076227   -4.347187   -9.914143
     15          1           0       -3.548046   -1.482047   -6.686204
     16          1           0       -4.887405   -0.350943   -6.767658
     17          7           0       -6.786191   -1.675556   -8.960249
     18          6           0       -7.940383   -1.679492   -9.865887
     19          6           0       -9.245210   -1.328191   -9.119801
     20          8           0      -10.191208   -2.120614   -9.113390
     21          6           0       -8.063560   -3.036464  -10.592264
     22          6           0       -6.743042   -3.546930  -11.134597
     23          6           0       -6.001960   -2.811906  -12.073095
     24          6           0       -6.230483   -4.775477  -10.696719
     25          6           0       -4.788224   -3.296423  -12.562914
     26          6           0       -5.018216   -5.269559  -11.188171
     27          6           0       -4.292275   -4.529876  -12.124342
     28          1           0       -6.691503   -2.493860   -8.371976
     29          1           0       -7.737574   -0.886870  -10.591203
     30          1           0       -8.488505   -3.770331   -9.900512
     31          1           0       -8.803659   -2.924118  -11.392162
     32          1           0       -6.372044   -1.852171  -12.422764
     33          1           0       -6.797417   -5.366276   -9.980265
     34          1           0       -4.236103   -2.717466  -13.297768
     35          1           0       -4.655353   -6.237789  -10.853545
     36          1           0       -3.363175   -4.919985  -12.532341
     37          7           0       -9.335963   -0.125595   -8.492976
     38          6           0       -8.270631    0.824925   -8.198801
     39          6           0       -7.444414    0.459634   -6.947482
     40          8           0       -6.248021    0.795697   -6.902163
     41          6           0       -8.822456    2.259866   -8.072174
     42          6           0       -9.857516    2.421013   -6.956244
     43          7           0      -10.064640    3.685987   -6.526768
     44          8           0      -10.471557    1.457748   -6.492979
     45          1           0      -10.196960    0.024308   -7.969741
     46          1           0       -7.552264    0.839776   -9.019748
     47          1           0       -9.296010    2.535358   -9.022765
     48          1           0       -7.977630    2.940697   -7.921154
     49          1           0      -10.802117    3.850230   -5.853793
     50          1           0       -9.595070    4.484481   -6.928397
     51          7           0       -8.071552   -0.199499   -5.955389
     52          6           0       -7.417278   -0.492449   -4.688952
     53          6           0       -6.787075   -1.893787   -4.625256
     54          8           0       -6.226042   -2.294598   -3.641577
     55          6           0       -8.289938   -0.153430   -3.457422
     56          6           0       -9.755538   -0.618449   -3.460343
     57          6           0       -9.983352   -2.133832   -3.417973
     58          7           0       -9.356277   -2.840100   -4.541864
     59          6           0       -9.900386   -2.773624   -5.811544
     60          7           0      -10.842138   -1.953724   -6.088039
     61          7           0       -9.146680   -3.535251   -6.760867
     62          8           0       -6.682213   -2.605176   -5.811591
     63          1           0       -7.545625   -2.632660   -6.304138
     64          1           0       -9.078081   -0.336272   -6.024188
     65          1           0       -6.538096    0.162968   -4.644401
     66          1           0       -7.760491   -0.551378   -2.584871
     67          1           0       -8.286083    0.937974   -3.362100
     68          1           0      -10.227537   -0.199584   -2.562762
     69          1           0      -10.300248   -0.191830   -4.307887
     70          1           0       -9.540839   -2.551975   -2.508546
     71          1           0      -11.060838   -2.335362   -3.403566
     72          1           0       -8.863695   -3.691105   -4.304361
     73          1           0      -11.096099   -2.002206   -7.075242
     74          1           0       -9.606534   -3.527549   -7.670971
     75          1           0       -8.964193   -4.493393   -6.464675
 ---------------------------------------------------------------------

 SCF Done:  E(RB3LYP) =  -1917.49369840     A.U. after    1 cycles

 Alpha  occ. eigenvalues --  -19.29282 -19.24770 -19.24479 -19.24360 -19.24258
 Alpha  occ. eigenvalues --  -19.23192 -19.22564 -14.54804 -14.49335 -14.48002
 Alpha  occ. eigenvalues --  -14.47652 -14.46959 -14.46527 -14.46482 -14.45261
 Alpha  occ. eigenvalues --  -14.38516 -10.42509 -10.42198 -10.42095 -10.41047
 Alpha  occ. eigenvalues --  -10.40545 -10.40353 -10.38586 -10.38403 -10.35433
 Alpha  occ. eigenvalues --  -10.35267 -10.34491 -10.33378 -10.31604 -10.30590
 Alpha  occ. eigenvalues --  -10.30389 -10.30021 -10.29528 -10.29428 -10.29390
 Alpha  occ. eigenvalues --  -10.29308 -10.29132 -10.28451 -10.26752  -1.19735
 Alpha  occ. eigenvalues --   -1.17138  -1.16119  -1.15801  -1.14958  -1.14276
 Alpha  occ. eigenvalues --   -1.12209  -1.10464  -1.08069  -1.05753  -1.04750
 Alpha  occ. eigenvalues --   -1.03102  -1.02993  -1.01333  -0.99216  -0.95994
 Alpha  occ. eigenvalues --   -0.94637  -0.92383  -0.90183  -0.89417  -0.88524
 Alpha  occ. eigenvalues --   -0.84912  -0.84669  -0.84000  -0.81167  -0.79296
 Alpha  occ. eigenvalues --   -0.77323  -0.77011  -0.73192  -0.72209  -0.71954
 Alpha  occ. eigenvalues --   -0.71614  -0.71227  -0.70505  -0.70144  -0.69470
 Alpha  occ. eigenvalues --   -0.69277  -0.68487  -0.67939  -0.66512  -0.66110
 Alpha  occ. eigenvalues --   -0.65633  -0.64742  -0.64328  -0.64057  -0.63522
 Alpha  occ. eigenvalues --   -0.62492  -0.61922  -0.61179  -0.60524  -0.59616
 Alpha  occ. eigenvalues --   -0.59129  -0.58723  -0.58164  -0.57151  -0.56657
 Alpha  occ. eigenvalues --   -0.55935  -0.55723  -0.55671  -0.55570  -0.55256
 Alpha  occ. eigenvalues --   -0.55008  -0.54494  -0.53956  -0.53547  -0.53480
 Alpha  occ. eigenvalues --   -0.53234  -0.52814  -0.52356  -0.52262  -0.52052
 Alpha  occ. eigenvalues --   -0.51740  -0.51572  -0.50773  -0.50194  -0.49668
 Alpha  occ. eigenvalues --   -0.49206  -0.49035  -0.48652  -0.48300  -0.48064
 Alpha  occ. eigenvalues --   -0.47133  -0.46909  -0.46770  -0.45799  -0.44721
 Alpha  occ. eigenvalues --   -0.44271  -0.44012  -0.43605  -0.42686  -0.42187
 Alpha  occ. eigenvalues --   -0.40306  -0.40038  -0.39545  -0.39231  -0.38975
 Alpha  occ. eigenvalues --   -0.38372  -0.37924  -0.37779  -0.36975  -0.36607
 Alpha  occ. eigenvalues --   -0.36434  -0.35461  -0.35334  -0.35209  -0.34833
 Alpha  occ. eigenvalues --   -0.32918
 Alpha virt. eigenvalues --   -0.12398  -0.11071  -0.10983  -0.10835  -0.10526
 Alpha virt. eigenvalues --   -0.10058  -0.09409  -0.08398  -0.06256  -0.05600
 Alpha virt. eigenvalues --   -0.03680  -0.02656  -0.02471  -0.02127  -0.00666

 Mulliken charges:
               1
     1  N   -0.804237
     2  C   -0.121998
     3  C    0.655506
     4  O   -0.497739
     5  C   -0.411240
     6  C    0.641029
     7  N   -0.737806
     8  O   -0.529720
     9  H    0.424439
    10  H    0.231528
    11  H    0.192900
    12  H    0.222423
    13  H    0.372803
    14  H    0.360237
    15  H    0.429800
    16  H    0.439882
    17  N   -0.617707
    18  C   -0.089168
    19  C    0.638586
    20  O   -0.533545
    21  C   -0.367461
    22  C    0.166770
    23  C   -0.177448
    24  C   -0.207311
    25  C   -0.139710
    26  C   -0.134024
    27  C   -0.159448
    28  H    0.333016
    29  H    0.218767
    30  H    0.158468
    31  H    0.199525
    32  H    0.157485
    33  H    0.135013
    34  H    0.161481
    35  H    0.152390
    36  H    0.151810
    37  N   -0.619242
    38  C   -0.077645
    39  C    0.640636
    40  O   -0.591585
    41  C   -0.393071
    42  C    0.608513
    43  N   -0.734538
    44  O   -0.520454
    45  H    0.384344
    46  H    0.210704
    47  H    0.210634
    48  H    0.196807
    49  H    0.366417
    50  H    0.359326
    51  N   -0.630366
    52  C   -0.061492
    53  C    0.598773
    54  O   -0.416872
    55  C   -0.282835
    56  C   -0.310407
    57  C   -0.116849
    58  N   -0.613590
    59  C    0.543462
    60  N   -0.646409
    61  N   -0.836753
    62  O   -0.695534
    63  H    0.471046
    64  H    0.410885
    65  H    0.200790
    66  H    0.181339
    67  H    0.160620
    68  H    0.162225
    69  H    0.205908
    70  H    0.159216
    71  H    0.182892
    72  H    0.338639
    73  H    0.319790
    74  H    0.379846
    75  H    0.339537
 Sum of Mulliken charges =   1.00000

 Dipole moment (field-independent basis, Debye):
    X=            -30.5298    Y=             -7.2023    Z=            -38.8369  Tot=             49.9224
 Quadrupole moment (field-independent basis, Debye-Ang):
   XX=              2.2899   YY=           -143.8703   ZZ=            114.8545
   XY=              8.7716   XZ=            216.5686   YZ=             75.7744

 Normal termination of Gaussian 16 at Mon Jun  6 02:41:29 2022.
