 Gaussian 16, Revision C.01,
 Gaussian 16:  ES64L-G16RevC.01  3-Jul-2019

 ----------------------------------------------------------------------
 # B3LYP/6-31G* empiricaldispersion=gd3 guess=read geom=check nosymm in
 tegral(ultrafinegrid)
 ----------------------------------------------------------------------

 ------------------------------------------------------
 Candidate Structure: Conf:962 Charge calc in gas phase
 ------------------------------------------------------
 Structure from the checkpoint file:  "conf-962.chk"
 Charge =  1 Multiplicity = 1

                          Input orientation:
 ---------------------------------------------------------------------
 Center     Atomic      Atomic             Coordinates (Angstroms)
 Number     Number       Type             X           Y           Z
 ---------------------------------------------------------------------
      1          7           0       -5.568073    1.612318   -9.358082
      2          6           0       -5.834583    1.292014   -7.906549
      3          6           0       -5.139089   -0.061696   -7.687799
      4          8           0       -3.977588   -0.144608   -8.094894
      5          6           0       -7.325936    1.419546   -7.634695
      6          6           0       -7.857837    2.817673   -7.941437
      7          7           0       -9.056505    3.105979   -7.396589
      8          8           0       -7.244488    3.603059   -8.673170
      9          1           0       -6.038355    0.871982   -9.926075
     10          1           0       -5.275703    2.024642   -7.316789
     11          1           0       -7.859755    0.719334   -8.278964
     12          1           0       -7.528362    1.143941   -6.596344
     13          1           0       -9.486600    3.996860   -7.609312
     14          1           0       -9.573519    2.431474   -6.848544
     15          1           0       -5.973271    2.554304   -9.533227
     16          1           0       -4.556863    1.567285   -9.525142
     17          7           0       -5.827485   -1.077504   -7.139686
     18          6           0       -5.140412   -2.250720   -6.602518
     19          6           0       -5.546029   -3.580235   -7.269821
     20          8           0       -5.659359   -4.593867   -6.579454
     21          6           0       -5.365932   -2.302792   -5.067684
     22          6           0       -5.198266   -0.925542   -4.466289
     23          6           0       -3.929054   -0.356213   -4.306844
     24          6           0       -6.326795   -0.145420   -4.173298
     25          6           0       -3.788161    0.964564   -3.876178
     26          6           0       -6.190274    1.175884   -3.741391
     27          6           0       -4.918599    1.737000   -3.597665
     28          1           0       -6.798329   -0.960107   -6.860081
     29          1           0       -4.077650   -2.095752   -6.815951
     30          1           0       -6.375382   -2.679679   -4.877657
     31          1           0       -4.666612   -3.028951   -4.644639
     32          1           0       -3.044073   -0.947525   -4.530789
     33          1           0       -7.318597   -0.576512   -4.295989
     34          1           0       -2.795613    1.389375   -3.755224
     35          1           0       -7.074561    1.762977   -3.505930
     36          1           0       -4.808410    2.762621   -3.256850
     37          7           0       -5.722152   -3.647522   -8.619645
     38          6           0       -5.781037   -2.587014   -9.611102
     39          6           0       -7.091379   -1.776001   -9.594664
     40          8           0       -7.091549   -0.607319  -10.046932
     41          6           0       -5.543726   -3.152177  -11.030900
     42          6           0       -6.568739   -4.210969  -11.441816
     43          7           0       -6.994262   -4.159054  -12.729336
     44          8           0       -6.976020   -5.056937  -10.648343
     45          1           0       -6.053615   -4.549478   -8.960422
     46          1           0       -4.979883   -1.868466   -9.429680
     47          1           0       -4.553105   -3.621850  -11.051741
     48          1           0       -5.529026   -2.311284  -11.731449
     49          1           0       -7.574543   -4.917034  -13.065305
     50          1           0       -6.586806   -3.535976  -13.410826
     51          7           0       -8.189316   -2.376549   -9.119391
     52          6           0       -9.447760   -1.667732   -9.007917
     53          6           0       -9.552603   -0.990359   -7.632667
     54          8           0       -8.763412   -1.111161   -6.723555
     55          6           0      -10.677091   -2.559347   -9.404917
     56          6           0      -11.709629   -2.978922   -8.337746
     57          6           0      -11.312157   -4.131740   -7.404478
     58          7           0      -10.262229   -3.826089   -6.444589
     59          6           0       -9.007107   -4.381688   -6.515305
     60          7           0       -8.536069   -4.749972   -7.668125
     61          7           0       -8.328973   -4.419199   -5.309557
     62          8           0      -10.569123   -0.101123   -7.496877
     63          1           0      -11.147881   -0.111824   -8.279386
     64          1           0       -8.179831   -3.340705   -8.705110
     65          1           0       -9.389360   -0.836224   -9.721195
     66          1           0      -11.215332   -2.026027  -10.196852
     67          1           0      -10.265196   -3.458897   -9.872673
     68          1           0      -12.033755   -2.121549   -7.733768
     69          1           0      -12.603591   -3.308502   -8.882544
     70          1           0      -12.207216   -4.449337   -6.854177
     71          1           0      -10.965259   -4.981562   -7.998234
     72          1           0      -10.518050   -3.368763   -5.581538
     73          1           0       -7.684645   -5.293943   -7.542104
     74          1           0       -7.378196   -4.771243   -5.366580
     75          1           0       -8.845910   -4.718804   -4.491699
 ---------------------------------------------------------------------

 SCF Done:  E(RB3LYP) =  -1917.49370625     A.U. after    3 cycles

 Alpha  occ. eigenvalues --  -19.32600 -19.26584 -19.24532 -19.24043 -19.23724
 Alpha  occ. eigenvalues --  -19.21535 -19.21189 -14.55398 -14.47971 -14.47516
 Alpha  occ. eigenvalues --  -14.46294 -14.45835 -14.45091 -14.43832 -14.42778
 Alpha  occ. eigenvalues --  -14.36807 -10.44665 -10.42096 -10.41176 -10.40454
 Alpha  occ. eigenvalues --  -10.39411 -10.38794 -10.38140 -10.37182 -10.35703
 Alpha  occ. eigenvalues --  -10.34656 -10.33497 -10.32633 -10.30936 -10.30779
 Alpha  occ. eigenvalues --  -10.30330 -10.28851 -10.27883 -10.27673 -10.27316
 Alpha  occ. eigenvalues --  -10.27073 -10.27042 -10.26978 -10.26898  -1.22978
 Alpha  occ. eigenvalues --   -1.16561  -1.15924  -1.15166  -1.14588  -1.13480
 Alpha  occ. eigenvalues --   -1.13010  -1.10303  -1.06398  -1.04548  -1.03816
 Alpha  occ. eigenvalues --   -1.02973  -1.01709  -1.00514  -0.97425  -0.93736
 Alpha  occ. eigenvalues --   -0.92424  -0.91778  -0.90304  -0.88505  -0.87486
 Alpha  occ. eigenvalues --   -0.84551  -0.82966  -0.82478  -0.80566  -0.78685
 Alpha  occ. eigenvalues --   -0.77530  -0.75169  -0.74260  -0.72524  -0.71746
 Alpha  occ. eigenvalues --   -0.71052  -0.70540  -0.70349  -0.68888  -0.68678
 Alpha  occ. eigenvalues --   -0.68385  -0.68021  -0.67943  -0.66513  -0.65853
 Alpha  occ. eigenvalues --   -0.65767  -0.63788  -0.63414  -0.62803  -0.61964
 Alpha  occ. eigenvalues --   -0.61525  -0.60512  -0.60290  -0.59840  -0.58950
 Alpha  occ. eigenvalues --   -0.58719  -0.58276  -0.58075  -0.57048  -0.56756
 Alpha  occ. eigenvalues --   -0.55863  -0.55281  -0.55168  -0.54837  -0.54273
 Alpha  occ. eigenvalues --   -0.54104  -0.53744  -0.53464  -0.53271  -0.53192
 Alpha  occ. eigenvalues --   -0.52945  -0.52157  -0.51654  -0.51108  -0.50796
 Alpha  occ. eigenvalues --   -0.50549  -0.50121  -0.49962  -0.49682  -0.49292
 Alpha  occ. eigenvalues --   -0.49179  -0.48068  -0.47919  -0.47831  -0.47463
 Alpha  occ. eigenvalues --   -0.46695  -0.46088  -0.45782  -0.45124  -0.44534
 Alpha  occ. eigenvalues --   -0.43959  -0.43780  -0.43708  -0.41977  -0.41898
 Alpha  occ. eigenvalues --   -0.40273  -0.39518  -0.39300  -0.38781  -0.38176
 Alpha  occ. eigenvalues --   -0.37729  -0.37320  -0.36641  -0.35885  -0.35745
 Alpha  occ. eigenvalues --   -0.34329  -0.34259  -0.33951  -0.33130  -0.32483
 Alpha  occ. eigenvalues --   -0.31206
 Alpha virt. eigenvalues --   -0.12521  -0.11363  -0.09642  -0.09587  -0.08728
 Alpha virt. eigenvalues --   -0.08307  -0.07947  -0.07557  -0.06699  -0.04452
 Alpha virt. eigenvalues --   -0.04122  -0.02319  -0.02030  -0.01725  -0.00497

 Mulliken charges:
               1
     1  N   -0.763042
     2  C   -0.108046
     3  C    0.641754
     4  O   -0.540283
     5  C   -0.437072
     6  C    0.636224
     7  N   -0.743606
     8  O   -0.535302
     9  H    0.430036
    10  H    0.236350
    11  H    0.211862
    12  H    0.215736
    13  H    0.369511
    14  H    0.368487
    15  H    0.427488
    16  H    0.407753
    17  N   -0.652064
    18  C   -0.076338
    19  C    0.643094
    20  O   -0.536910
    21  C   -0.389577
    22  C    0.166931
    23  C   -0.176869
    24  C   -0.215084
    25  C   -0.132731
    26  C   -0.144442
    27  C   -0.137395
    28  H    0.421761
    29  H    0.218820
    30  H    0.182801
    31  H    0.186782
    32  H    0.142554
    33  H    0.146428
    34  H    0.150988
    35  H    0.136216
    36  H    0.147124
    37  N   -0.630762
    38  C   -0.059817
    39  C    0.649539
    40  O   -0.623366
    41  C   -0.390727
    42  C    0.606441
    43  N   -0.737919
    44  O   -0.506048
    45  H    0.387630
    46  H    0.194365
    47  H    0.212596
    48  H    0.168513
    49  H    0.361585
    50  H    0.352411
    51  N   -0.617842
    52  C   -0.101425
    53  C    0.641729
    54  O   -0.470429
    55  C   -0.309091
    56  C   -0.285819
    57  C   -0.128189
    58  N   -0.600022
    59  C    0.642577
    60  N   -0.739770
    61  N   -0.785479
    62  O   -0.570733
    63  H    0.431715
    64  H    0.447710
    65  H    0.193423
    66  H    0.155764
    67  H    0.208998
    68  H    0.128882
    69  H    0.164846
    70  H    0.157949
    71  H    0.198003
    72  H    0.328885
    73  H    0.311745
    74  H    0.378988
    75  H    0.333206
 Sum of Mulliken charges =   1.00000

 Dipole moment (field-independent basis, Debye):
    X=            -39.4775    Y=             -1.5795    Z=            -42.1682  Tot=             57.7852
 Quadrupole moment (field-independent basis, Debye-Ang):
   XX=            144.1551   YY=           -198.7017   ZZ=            194.8278
   XY=             23.4038   XZ=            333.6907   YZ=             26.2388

 Normal termination of Gaussian 16 at Mon Jun  6 02:47:59 2022.
