 Gaussian 16, Revision C.01,
 Gaussian 16:  ES64L-G16RevC.01  3-Jul-2019

 ----------------------------------------------------------------------
 # B3LYP/6-31G* empiricaldispersion=gd3 guess=read geom=check nosymm in
 tegral(ultrafinegrid)
 ----------------------------------------------------------------------

 ------------------------------------------------------
 Candidate Structure: Conf:304 Charge calc in gas phase
 ------------------------------------------------------
 Structure from the checkpoint file:  "conf-304.chk"
 Charge =  1 Multiplicity = 1

                          Input orientation:
 ---------------------------------------------------------------------
 Center     Atomic      Atomic             Coordinates (Angstroms)
 Number     Number       Type             X           Y           Z
 ---------------------------------------------------------------------
      1          7           0       -7.405196    1.606309   -7.316691
      2          6           0       -6.166003    0.780343   -7.551965
      3          6           0       -6.478133   -0.061935   -8.800282
      4          8           0       -7.016537    0.488917   -9.758040
      5          6           0       -5.775315    0.016434   -6.290439
      6          6           0       -5.789615    0.864404   -5.015712
      7          7           0       -5.422137    0.201304   -3.910005
      8          8           0       -6.126591    2.059106   -5.029531
      9          1           0       -8.221019    0.993733   -7.143401
     10          1           0       -5.382051    1.492976   -7.825540
     11          1           0       -6.459629   -0.815245   -6.130929
     12          1           0       -4.772313   -0.396975   -6.434702
     13          1           0       -5.457774    0.696691   -3.028689
     14          1           0       -5.278911   -0.818302   -3.916478
     15          1           0       -7.195886    2.181005   -6.468616
     16          1           0       -7.608725    2.153953   -8.158473
     17          7           0       -6.195718   -1.378514   -8.722267
     18          6           0       -6.283648   -2.268398   -9.876703
     19          6           0       -7.134981   -3.469715   -9.429458
     20          8           0       -6.623211   -4.542491   -9.115952
     21          6           0       -4.877704   -2.690219  -10.359452
     22          6           0       -3.974816   -1.483437  -10.476358
     23          6           0       -4.057200   -0.627800  -11.581188
     24          6           0       -3.109331   -1.142813   -9.427959
     25          6           0       -3.296175    0.540481  -11.637309
     26          6           0       -2.346746    0.025519   -9.477220
     27          6           0       -2.441803    0.872757  -10.583579
     28          1           0       -5.673845   -1.766365   -7.934133
     29          1           0       -6.783036   -1.706572  -10.668511
     30          1           0       -4.469176   -3.421499   -9.656916
     31          1           0       -4.987723   -3.207343  -11.319059
     32          1           0       -4.725929   -0.875792  -12.402343
     33          1           0       -3.028633   -1.804740   -8.567607
     34          1           0       -3.369306    1.190703  -12.504356
     35          1           0       -1.671566    0.267912   -8.660781
     36          1           0       -1.846203    1.779976  -10.629131
     37          7           0       -8.486948   -3.289944   -9.338594
     38          6           0       -9.254876   -2.053846   -9.399845
     39          6           0       -9.533380   -1.389216   -8.026500
     40          8           0       -9.618851   -0.162693   -7.952260
     41          6           0      -10.584982   -2.273908  -10.151819
     42          6           0      -11.460048   -3.382006   -9.556563
     43          7           0      -12.657819   -3.555565  -10.151407
     44          8           0      -11.097226   -4.082433   -8.603268
     45          1           0       -8.994848   -4.115951   -9.036202
     46          1           0       -8.695155   -1.295108   -9.948836
     47          1           0      -10.356164   -2.534165  -11.192538
     48          1           0      -11.143193   -1.330339  -10.172210
     49          1           0      -13.255100   -4.306171   -9.829253
     50          1           0      -12.954131   -3.015250  -10.951604
     51          7           0       -9.700333   -2.223899   -6.962433
     52          6           0      -10.327794   -1.771665   -5.723986
     53          6           0       -9.628206   -0.568584   -5.108843
     54          8           0       -8.498745   -0.181203   -5.329380
     55          6           0      -10.423390   -2.935930   -4.700683
     56          6           0       -9.194299   -3.854889   -4.533361
     57          6           0       -7.814786   -3.200373   -4.291151
     58          7           0       -7.013681   -3.223624   -5.511831
     59          6           0       -5.653331   -3.107087   -5.501775
     60          7           0       -5.023744   -2.726104   -4.436821
     61          7           0       -5.068179   -3.346329   -6.761527
     62          8           0      -10.440267    0.021893   -4.219110
     63          1           0       -9.948372    0.758283   -3.807531
     64          1           0       -9.961839   -3.171885   -7.231209
     65          1           0      -11.350114   -1.428964   -5.932329
     66          1           0      -10.700581   -2.493833   -3.738491
     67          1           0      -11.269647   -3.564586   -5.001266
     68          1           0       -9.424713   -4.510653   -3.686784
     69          1           0       -9.107367   -4.526861   -5.396031
     70          1           0       -7.910497   -2.180828   -3.899573
     71          1           0       -7.254071   -3.763248   -3.540621
     72          1           0       -7.504103   -3.122966   -6.390852
     73          1           0       -4.015048   -2.837332   -4.542627
     74          1           0       -4.061701   -3.465577   -6.719801
     75          1           0       -5.500089   -4.088450   -7.315016
 ---------------------------------------------------------------------

 SCF Done:  E(RB3LYP) =  -1917.50396285     A.U. after    3 cycles

 Alpha  occ. eigenvalues --  -19.31560 -19.26208 -19.24609 -19.24187 -19.23331
 Alpha  occ. eigenvalues --  -19.22652 -19.22307 -14.54328 -14.47990 -14.47721
 Alpha  occ. eigenvalues --  -14.47459 -14.47068 -14.45673 -14.45087 -14.44485
 Alpha  occ. eigenvalues --  -14.39316 -10.44488 -10.41809 -10.41317 -10.40819
 Alpha  occ. eigenvalues --  -10.40043 -10.39795 -10.39068 -10.37258 -10.35845
 Alpha  occ. eigenvalues --  -10.35826 -10.34035 -10.32421 -10.31443 -10.31110
 Alpha  occ. eigenvalues --  -10.30507 -10.29258 -10.28437 -10.28014 -10.27332
 Alpha  occ. eigenvalues --  -10.27137 -10.26902 -10.26820 -10.26759  -1.22908
 Alpha  occ. eigenvalues --   -1.16487  -1.15756  -1.15612  -1.14515  -1.13892
 Alpha  occ. eigenvalues --   -1.13615  -1.09255  -1.08276  -1.05316  -1.04548
 Alpha  occ. eigenvalues --   -1.03216  -1.02601  -1.00078  -0.99172  -0.94641
 Alpha  occ. eigenvalues --   -0.93791  -0.91443  -0.90834  -0.89611  -0.87589
 Alpha  occ. eigenvalues --   -0.85367  -0.83029  -0.82428  -0.80121  -0.79665
 Alpha  occ. eigenvalues --   -0.78890  -0.75854  -0.74313  -0.71759  -0.71320
 Alpha  occ. eigenvalues --   -0.70379  -0.70232  -0.69965  -0.69672  -0.69075
 Alpha  occ. eigenvalues --   -0.68534  -0.68338  -0.67210  -0.66421  -0.65610
 Alpha  occ. eigenvalues --   -0.64799  -0.63854  -0.63165  -0.62930  -0.62352
 Alpha  occ. eigenvalues --   -0.61981  -0.61162  -0.60717  -0.60447  -0.59523
 Alpha  occ. eigenvalues --   -0.58953  -0.58326  -0.57786  -0.57265  -0.56795
 Alpha  occ. eigenvalues --   -0.56506  -0.56448  -0.56143  -0.55677  -0.54953
 Alpha  occ. eigenvalues --   -0.54465  -0.54129  -0.53795  -0.53529  -0.53164
 Alpha  occ. eigenvalues --   -0.53033  -0.52465  -0.52276  -0.51797  -0.51419
 Alpha  occ. eigenvalues --   -0.51112  -0.50619  -0.50395  -0.50089  -0.49886
 Alpha  occ. eigenvalues --   -0.48896  -0.48690  -0.48682  -0.48163  -0.47862
 Alpha  occ. eigenvalues --   -0.47682  -0.46730  -0.45677  -0.45542  -0.44819
 Alpha  occ. eigenvalues --   -0.44481  -0.43758  -0.43649  -0.42135  -0.42017
 Alpha  occ. eigenvalues --   -0.40636  -0.39976  -0.39259  -0.38602  -0.38130
 Alpha  occ. eigenvalues --   -0.37846  -0.37742  -0.37443  -0.36688  -0.36503
 Alpha  occ. eigenvalues --   -0.36125  -0.35648  -0.35249  -0.33038  -0.32968
 Alpha  occ. eigenvalues --   -0.32467
 Alpha virt. eigenvalues --   -0.12104  -0.11235  -0.10820  -0.09709  -0.08968
 Alpha virt. eigenvalues --   -0.08441  -0.08312  -0.07568  -0.05762  -0.04631
 Alpha virt. eigenvalues --   -0.03644  -0.03413  -0.02896  -0.02462  -0.00354

 Mulliken charges:
               1
     1  N   -0.769148
     2  C   -0.124306
     3  C    0.658087
     4  O   -0.535864
     5  C   -0.428984
     6  C    0.643132
     7  N   -0.774884
     8  O   -0.562804
     9  H    0.456193
    10  H    0.230865
    11  H    0.225280
    12  H    0.195999
    13  H    0.350920
    14  H    0.412038
    15  H    0.428015
    16  H    0.405726
    17  N   -0.659865
    18  C   -0.070058
    19  C    0.617523
    20  O   -0.516788
    21  C   -0.371173
    22  C    0.170944
    23  C   -0.168070
    24  C   -0.197534
    25  C   -0.126052
    26  C   -0.138512
    27  C   -0.132714
    28  H    0.422411
    29  H    0.199766
    30  H    0.168423
    31  H    0.177477
    32  H    0.135070
    33  H    0.107653
    34  H    0.150102
    35  H    0.141258
    36  H    0.149212
    37  N   -0.617370
    38  C   -0.088503
    39  C    0.631074
    40  O   -0.555292
    41  C   -0.390687
    42  C    0.612757
    43  N   -0.728769
    44  O   -0.541022
    45  H    0.362823
    46  H    0.216676
    47  H    0.205888
    48  H    0.207148
    49  H    0.369739
    50  H    0.363785
    51  N   -0.636858
    52  C   -0.015367
    53  C    0.618002
    54  O   -0.502331
    55  C   -0.325060
    56  C   -0.309408
    57  C   -0.108203
    58  N   -0.608170
    59  C    0.610941
    60  N   -0.686762
    61  N   -0.831069
    62  O   -0.547624
    63  H    0.431079
    64  H    0.382718
    65  H    0.198074
    66  H    0.187797
    67  H    0.180614
    68  H    0.179425
    69  H    0.159378
    70  H    0.157172
    71  H    0.191247
    72  H    0.344560
    73  H    0.288644
    74  H    0.343048
    75  H    0.380566
 Sum of Mulliken charges =   1.00000

 Dipole moment (field-independent basis, Debye):
    X=            -41.1262    Y=             -6.2776    Z=            -36.7059  Tot=             55.4806
 Quadrupole moment (field-independent basis, Debye-Ang):
   XX=            191.7932   YY=           -200.8869   ZZ=            100.3852
   XY=             70.9510   XZ=            328.7148   YZ=             51.6502

 Normal termination of Gaussian 16 at Mon Jun  6 02:42:21 2022.
