 Gaussian 16, Revision C.01,
 Gaussian 16:  ES64L-G16RevC.01  3-Jul-2019

 ----------------------------------------------------------------------
 # B3LYP/6-31G* empiricaldispersion=gd3 guess=read geom=check nosymm in
 tegral(ultrafinegrid)
 ----------------------------------------------------------------------

 ------------------------------------------------------
 Candidate Structure: Conf:883 Charge calc in gas phase
 ------------------------------------------------------
 Structure from the checkpoint file:  "conf-883.chk"
 Charge =  1 Multiplicity = 1

                          Input orientation:
 ---------------------------------------------------------------------
 Center     Atomic      Atomic             Coordinates (Angstroms)
 Number     Number       Type             X           Y           Z
 ---------------------------------------------------------------------
      1          7           0       -9.149192   -2.793846   -9.622255
      2          6           0       -9.773696   -3.209695   -8.315922
      3          6           0       -9.315647   -2.381744   -7.108514
      4          8           0      -10.158639   -1.963495   -6.328130
      5          6           0       -9.526207   -4.697740   -8.058842
      6          6           0      -10.078231   -5.577496   -9.178141
      7          7           0      -10.311403   -6.860124   -8.840503
      8          8           0      -10.263109   -5.135657  -10.318259
      9          1           0       -9.609607   -3.387230  -10.342616
     10          1           0      -10.840875   -3.011990   -8.424446
     11          1           0       -8.452988   -4.896039   -7.943734
     12          1           0       -9.969812   -4.955840   -7.092624
     13          1           0      -10.658005   -7.498262   -9.545436
     14          1           0      -10.180141   -7.196960   -7.896555
     15          1           0       -9.256143   -1.758141   -9.759258
     16          1           0       -8.137033   -2.987893   -9.659766
     17          7           0       -7.974531   -2.219949   -6.928891
     18          6           0       -7.446444   -1.789656   -5.631917
     19          6           0       -6.482331   -0.584829   -5.742806
     20          8           0       -5.374580   -0.648347   -5.213784
     21          6           0       -6.758852   -2.969431   -4.908034
     22          6           0       -7.561998   -4.253918   -4.958835
     23          6           0       -8.853670   -4.332763   -4.415093
     24          6           0       -7.023634   -5.400360   -5.559245
     25          6           0       -9.580018   -5.523595   -4.465336
     26          6           0       -7.744104   -6.597862   -5.609542
     27          6           0       -9.027303   -6.662885   -5.061825
     28          1           0       -7.313725   -2.620388   -7.583730
     29          1           0       -8.323338   -1.464931   -5.064399
     30          1           0       -5.770557   -3.124021   -5.352837
     31          1           0       -6.569905   -2.663744   -3.873541
     32          1           0       -9.299363   -3.456739   -3.952555
     33          1           0       -6.016641   -5.363703   -5.969948
     34          1           0      -10.572765   -5.565685   -4.026085
     35          1           0       -7.294033   -7.480382   -6.056621
     36          1           0       -9.581192   -7.598533   -5.068868
     37          7           0       -6.900961    0.544221   -6.389348
     38          6           0       -8.096334    0.712441   -7.201172
     39          6           0       -7.958573    0.126002   -8.620821
     40          8           0       -8.984004   -0.127269   -9.276321
     41          6           0       -8.527861    2.192707   -7.256461
     42          6           0       -7.490470    3.061436   -7.964728
     43          7           0       -7.046532    4.148023   -7.291974
     44          8           0       -7.110448    2.769520   -9.097139
     45          1           0       -6.145191    1.240213   -6.502358
     46          1           0       -8.929298    0.169712   -6.748788
     47          1           0       -8.745139    2.530684   -6.238458
     48          1           0       -9.453133    2.247157   -7.839120
     49          1           0       -6.266983    4.658581   -7.686085
     50          1           0       -7.254204    4.294004   -6.315323
     51          7           0       -6.712108   -0.171551   -9.037503
     52          6           0       -6.408181   -0.562306  -10.406135
     53          6           0       -5.554199   -1.824840  -10.354404
     54          8           0       -4.457164   -2.003446  -10.810218
     55          6           0       -5.831991    0.574780  -11.274422
     56          6           0       -4.399306    1.086482  -11.031983
     57          6           0       -4.089299    1.678749   -9.654911
     58          7           0       -3.907471    0.609021   -8.648740
     59          6           0       -3.722594    0.964985   -7.308197
     60          7           0       -4.374742    1.973731   -6.826496
     61          7           0       -2.863165    0.155532   -6.590430
     62          8           0       -6.208375   -2.854045   -9.677930
     63          1           0       -5.610263   -3.625658   -9.727088
     64          1           0       -5.906469    0.170862   -8.515136
     65          1           0       -7.364974   -0.848893  -10.857016
     66          1           0       -5.892869    0.236915  -12.316200
     67          1           0       -6.535707    1.405248  -11.159161
     68          1           0       -3.674236    0.301802  -11.275895
     69          1           0       -4.236107    1.884732  -11.765616
     70          1           0       -3.176057    2.286565   -9.712917
     71          1           0       -4.899744    2.325607   -9.319849
     72          1           0       -3.253893   -0.097138   -8.974179
     73          1           0       -4.110689    2.116152   -5.850723
     74          1           0       -3.177740   -0.018598   -5.642005
     75          1           0       -2.533161   -0.690336   -7.039057
 ---------------------------------------------------------------------

 SCF Done:  E(RB3LYP) =  -1917.48948129     A.U. after    1 cycles

 Alpha  occ. eigenvalues --  -19.34246 -19.27993 -19.24873 -19.24177 -19.23934
 Alpha  occ. eigenvalues --  -19.22018 -19.20621 -14.55303 -14.48782 -14.48323
 Alpha  occ. eigenvalues --  -14.47222 -14.45460 -14.44847 -14.44803 -14.43622
 Alpha  occ. eigenvalues --  -14.37730 -10.45569 -10.42433 -10.41771 -10.40761
 Alpha  occ. eigenvalues --  -10.39496 -10.38487 -10.38390 -10.37768 -10.35906
 Alpha  occ. eigenvalues --  -10.34606 -10.34581 -10.33461 -10.30100 -10.29973
 Alpha  occ. eigenvalues --  -10.29559 -10.29400 -10.29372 -10.29249 -10.29234
 Alpha  occ. eigenvalues --  -10.29128 -10.28862 -10.28496 -10.27333  -1.24057
 Alpha  occ. eigenvalues --   -1.16795  -1.16318  -1.15544  -1.15433  -1.13815
 Alpha  occ. eigenvalues --   -1.12413  -1.10870  -1.07036  -1.05286  -1.04622
 Alpha  occ. eigenvalues --   -1.03318  -1.02210  -0.99605  -0.97899  -0.95755
 Alpha  occ. eigenvalues --   -0.93360  -0.92414  -0.90175  -0.89110  -0.87867
 Alpha  occ. eigenvalues --   -0.84761  -0.84594  -0.84402  -0.81184  -0.78295
 Alpha  occ. eigenvalues --   -0.78135  -0.76636  -0.73160  -0.72933  -0.72071
 Alpha  occ. eigenvalues --   -0.71495  -0.70839  -0.70452  -0.69303  -0.68895
 Alpha  occ. eigenvalues --   -0.68378  -0.68042  -0.67897  -0.67716  -0.65934
 Alpha  occ. eigenvalues --   -0.65343  -0.64759  -0.63358  -0.62774  -0.62673
 Alpha  occ. eigenvalues --   -0.61861  -0.61532  -0.60869  -0.60708  -0.59882
 Alpha  occ. eigenvalues --   -0.59620  -0.58709  -0.58365  -0.57486  -0.56483
 Alpha  occ. eigenvalues --   -0.56159  -0.55560  -0.55395  -0.55131  -0.55000
 Alpha  occ. eigenvalues --   -0.54785  -0.54399  -0.53963  -0.53770  -0.53295
 Alpha  occ. eigenvalues --   -0.52916  -0.52662  -0.52443  -0.52304  -0.51940
 Alpha  occ. eigenvalues --   -0.51771  -0.51282  -0.50822  -0.49830  -0.49773
 Alpha  occ. eigenvalues --   -0.49217  -0.48896  -0.48436  -0.47698  -0.46968
 Alpha  occ. eigenvalues --   -0.46773  -0.46586  -0.46260  -0.45895  -0.45581
 Alpha  occ. eigenvalues --   -0.44218  -0.43963  -0.43744  -0.43334  -0.42857
 Alpha  occ. eigenvalues --   -0.40555  -0.39730  -0.39610  -0.39339  -0.38719
 Alpha  occ. eigenvalues --   -0.37851  -0.37430  -0.36550  -0.35978  -0.35604
 Alpha  occ. eigenvalues --   -0.35427  -0.35249  -0.34815  -0.34495  -0.34237
 Alpha  occ. eigenvalues --   -0.31818
 Alpha virt. eigenvalues --   -0.13293  -0.11921  -0.10831  -0.10584  -0.10161
 Alpha virt. eigenvalues --   -0.09883  -0.08828  -0.07425  -0.06769  -0.05017
 Alpha virt. eigenvalues --   -0.03840  -0.02826  -0.02626  -0.01405  -0.01097

 Mulliken charges:
               1
     1  N   -0.815393
     2  C   -0.117646
     3  C    0.651065
     4  O   -0.504222
     5  C   -0.407442
     6  C    0.636402
     7  N   -0.736425
     8  O   -0.535078
     9  H    0.427796
    10  H    0.232541
    11  H    0.188057
    12  H    0.224600
    13  H    0.372457
    14  H    0.362083
    15  H    0.450592
    16  H    0.408923
    17  N   -0.624870
    18  C   -0.088153
    19  C    0.616654
    20  O   -0.528032
    21  C   -0.360078
    22  C    0.173703
    23  C   -0.176385
    24  C   -0.210688
    25  C   -0.141895
    26  C   -0.133245
    27  C   -0.160483
    28  H    0.339487
    29  H    0.219086
    30  H    0.158322
    31  H    0.196363
    32  H    0.158669
    33  H    0.130851
    34  H    0.160400
    35  H    0.149126
    36  H    0.149220
    37  N   -0.661537
    38  C   -0.070744
    39  C    0.676773
    40  O   -0.599186
    41  C   -0.362410
    42  C    0.608157
    43  N   -0.725463
    44  O   -0.520580
    45  H    0.397873
    46  H    0.206682
    47  H    0.167312
    48  H    0.215875
    49  H    0.363163
    50  H    0.350734
    51  N   -0.611306
    52  C   -0.075635
    53  C    0.607949
    54  O   -0.419037
    55  C   -0.272702
    56  C   -0.300777
    57  C   -0.155352
    58  N   -0.658436
    59  C    0.627822
    60  N   -0.696382
    61  N   -0.742471
    62  O   -0.621987
    63  H    0.430847
    64  H    0.406829
    65  H    0.177691
    66  H    0.159333
    67  H    0.206540
    68  H    0.164333
    69  H    0.168293
    70  H    0.161946
    71  H    0.223440
    72  H    0.323709
    73  H    0.296670
    74  H    0.364042
    75  H    0.321631
 Sum of Mulliken charges =   1.00000

 Dipole moment (field-independent basis, Debye):
    X=            -35.5459    Y=            -13.7178    Z=            -38.0559  Tot=             53.8511
 Quadrupole moment (field-independent basis, Debye-Ang):
   XX=             61.8185   YY=           -108.2334   ZZ=             91.0353
   XY=            127.3857   XZ=            275.4612   YZ=            116.3151

 Normal termination of Gaussian 16 at Mon Jun  6 02:47:24 2022.
