 Gaussian 16, Revision C.01,
 Gaussian 16:  ES64L-G16RevC.01  3-Jul-2019

 ----------------------------------------------------------------------
 # B3LYP/6-31G* empiricaldispersion=gd3 guess=read geom=check nosymm in
 tegral(ultrafinegrid)
 ----------------------------------------------------------------------

 ------------------------------------------------------
 Candidate Structure: Conf:288 Charge calc in gas phase
 ------------------------------------------------------
 Structure from the checkpoint file:  "conf-288.chk"
 Charge =  1 Multiplicity = 1

                          Input orientation:
 ---------------------------------------------------------------------
 Center     Atomic      Atomic             Coordinates (Angstroms)
 Number     Number       Type             X           Y           Z
 ---------------------------------------------------------------------
      1          7           0       -7.494117    1.234028   -8.269349
      2          6           0       -7.553851    0.675022   -9.664530
      3          6           0       -7.932241   -0.808386   -9.734600
      4          8           0       -8.747071   -1.163270  -10.576166
      5          6           0       -6.214974    0.902534  -10.369919
      6          6           0       -5.848999    2.382151  -10.446229
      7          7           0       -4.955604    2.704564  -11.400766
      8          8           0       -6.327479    3.211014   -9.662247
      9          1           0       -6.739761    0.799475   -7.710804
     10          1           0       -8.353883    1.216416  -10.170959
     11          1           0       -5.414638    0.362806   -9.848735
     12          1           0       -6.269652    0.453781  -11.366061
     13          1           0       -4.643015    3.663843  -11.478047
     14          1           0       -4.583790    2.013586  -12.038099
     15          1           0       -7.274647    2.244516   -8.393214
     16          1           0       -8.383398    1.029194   -7.764095
     17          7           0       -7.264674   -1.671197   -8.919214
     18          6           0       -7.260573   -3.101378   -9.224654
     19          6           0       -7.654068   -3.970360   -8.014028
     20          8           0       -6.938518   -4.913151   -7.674269
     21          6           0       -5.888807   -3.533641   -9.788577
     22          6           0       -5.369310   -2.618121  -10.879533
     23          6           0       -6.092662   -2.399621  -12.062225
     24          6           0       -4.136911   -1.969151  -10.724964
     25          6           0       -5.595046   -1.560321  -13.060218
     26          6           0       -3.629784   -1.131670  -11.723108
     27          6           0       -4.359325   -0.923811  -12.895928
     28          1           0       -6.619891   -1.337513   -8.207868
     29          1           0       -8.031726   -3.233824   -9.989433
     30          1           0       -5.166540   -3.566869   -8.967212
     31          1           0       -5.979686   -4.564645  -10.146570
     32          1           0       -7.055120   -2.882317  -12.205166
     33          1           0       -3.555844   -2.135119   -9.820343
     34          1           0       -6.166452   -1.413835  -13.972476
     35          1           0       -2.659967   -0.659703  -11.589410
     36          1           0       -3.958585   -0.297400  -13.689205
     37          7           0       -8.818159   -3.701828   -7.356076
     38          6           0       -9.683686   -2.538422   -7.488805
     39          6           0       -9.161522   -1.290298   -6.748845
     40          8           0       -9.535067   -0.165063   -7.129271
     41          6           0      -11.126155   -2.854844   -7.047819
     42          6           0      -11.235490   -3.275582   -5.580478
     43          7           0      -12.484228   -3.247296   -5.057616
     44          8           0      -10.251766   -3.623550   -4.927791
     45          1           0       -8.964216   -4.252191   -6.512569
     46          1           0       -9.741904   -2.244443   -8.538378
     47          1           0      -11.512844   -3.667067   -7.675687
     48          1           0      -11.744570   -1.971515   -7.241602
     49          1           0      -12.620843   -3.606000   -4.121719
     50          1           0      -13.299818   -3.011632   -5.604100
     51          7           0       -8.317545   -1.489289   -5.722463
     52          6           0       -7.762186   -0.400797   -4.946855
     53          6           0       -6.308436   -0.135617   -5.380767
     54          8           0       -5.910500   -0.361818   -6.522394
     55          6           0       -8.038317   -0.569756   -3.434207
     56          6           0       -7.657736   -1.912216   -2.795677
     57          6           0       -6.165076   -2.255326   -2.801303
     58          7           0       -5.558747   -2.258717   -4.145666
     59          6           0       -5.790631   -3.360027   -4.985071
     60          7           0       -6.811045   -4.111056   -4.768601
     61          7           0       -4.844593   -3.487449   -5.991144
     62          8           0       -5.538398    0.604044   -4.577187
     63          1           0       -5.932985    0.675021   -3.690978
     64          1           0       -8.092350   -2.444197   -5.432593
     65          1           0       -8.293682    0.506235   -5.270224
     66          1           0       -7.576008    0.265881   -2.883266
     67          1           0       -9.116192   -0.422365   -3.308250
     68          1           0       -7.982991   -1.882127   -1.748454
     69          1           0       -8.216704   -2.723390   -3.267987
     70          1           0       -5.610122   -1.507932   -2.220029
     71          1           0       -6.025300   -3.229454   -2.317961
     72          1           0       -4.577552   -2.001266   -4.122358
     73          1           0       -6.875798   -4.840801   -5.478712
     74          1           0       -5.119041   -4.122030   -6.734057
     75          1           0       -4.426231   -2.626158   -6.324097
 ---------------------------------------------------------------------

 SCF Done:  E(RB3LYP) =  -1917.49812744     A.U. after    1 cycles

 Alpha  occ. eigenvalues --  -19.32349 -19.26970 -19.24197 -19.24161 -19.23607
 Alpha  occ. eigenvalues --  -19.22335 -19.21975 -14.54626 -14.47830 -14.47668
 Alpha  occ. eigenvalues --  -14.47642 -14.46237 -14.45972 -14.44867 -14.43387
 Alpha  occ. eigenvalues --  -14.37109 -10.45860 -10.41719 -10.41155 -10.40972
 Alpha  occ. eigenvalues --  -10.39759 -10.39743 -10.37781 -10.37276 -10.36327
 Alpha  occ. eigenvalues --  -10.35033 -10.34307 -10.32568 -10.31312 -10.31083
 Alpha  occ. eigenvalues --  -10.30987 -10.29587 -10.29161 -10.28808 -10.28697
 Alpha  occ. eigenvalues --  -10.28640 -10.28590 -10.28360 -10.27687  -1.23411
 Alpha  occ. eigenvalues --   -1.16295  -1.15753  -1.15556  -1.14702  -1.14203
 Alpha  occ. eigenvalues --   -1.13697  -1.10289  -1.06964  -1.05074  -1.04380
 Alpha  occ. eigenvalues --   -1.02650  -1.02574  -1.00779  -0.98000  -0.95232
 Alpha  occ. eigenvalues --   -0.93110  -0.91713  -0.90899  -0.88958  -0.88503
 Alpha  occ. eigenvalues --   -0.84858  -0.84125  -0.83912  -0.80522  -0.79141
 Alpha  occ. eigenvalues --   -0.77907  -0.76478  -0.74827  -0.72404  -0.72133
 Alpha  occ. eigenvalues --   -0.71324  -0.70903  -0.70250  -0.69873  -0.69187
 Alpha  occ. eigenvalues --   -0.68859  -0.68279  -0.67466  -0.67235  -0.66098
 Alpha  occ. eigenvalues --   -0.65280  -0.64238  -0.63879  -0.63493  -0.63324
 Alpha  occ. eigenvalues --   -0.61884  -0.61069  -0.60687  -0.60201  -0.59630
 Alpha  occ. eigenvalues --   -0.59388  -0.58688  -0.57975  -0.57284  -0.56898
 Alpha  occ. eigenvalues --   -0.56326  -0.55575  -0.55357  -0.55074  -0.55016
 Alpha  occ. eigenvalues --   -0.54627  -0.54436  -0.54126  -0.53884  -0.53345
 Alpha  occ. eigenvalues --   -0.52759  -0.52096  -0.52008  -0.51876  -0.51680
 Alpha  occ. eigenvalues --   -0.51392  -0.51012  -0.50686  -0.50320  -0.50012
 Alpha  occ. eigenvalues --   -0.49322  -0.49030  -0.48583  -0.47948  -0.47688
 Alpha  occ. eigenvalues --   -0.47370  -0.46682  -0.46341  -0.45599  -0.45025
 Alpha  occ. eigenvalues --   -0.44666  -0.44554  -0.43518  -0.43448  -0.43262
 Alpha  occ. eigenvalues --   -0.41023  -0.39944  -0.38945  -0.38711  -0.38315
 Alpha  occ. eigenvalues --   -0.38096  -0.37169  -0.36968  -0.36322  -0.36096
 Alpha  occ. eigenvalues --   -0.35317  -0.34811  -0.34695  -0.34634  -0.34046
 Alpha  occ. eigenvalues --   -0.32005
 Alpha virt. eigenvalues --   -0.12610  -0.11538  -0.10346  -0.10252  -0.09923
 Alpha virt. eigenvalues --   -0.09493  -0.08931  -0.07729  -0.06529  -0.04543
 Alpha virt. eigenvalues --   -0.03483  -0.02554  -0.01974  -0.01716  -0.00464

 Mulliken charges:
               1
     1  N   -0.812029
     2  C   -0.118114
     3  C    0.650429
     4  O   -0.510997
     5  C   -0.410446
     6  C    0.639495
     7  N   -0.737212
     8  O   -0.537520
     9  H    0.414428
    10  H    0.227026
    11  H    0.204240
    12  H    0.222679
    13  H    0.370504
    14  H    0.361529
    15  H    0.426356
    16  H    0.440498
    17  N   -0.645286
    18  C   -0.088953
    19  C    0.630681
    20  O   -0.524723
    21  C   -0.355546
    22  C    0.173415
    23  C   -0.175106
    24  C   -0.205570
    25  C   -0.141299
    26  C   -0.134461
    27  C   -0.160386
    28  H    0.370805
    29  H    0.219343
    30  H    0.145278
    31  H    0.198731
    32  H    0.156785
    33  H    0.135289
    34  H    0.158684
    35  H    0.149897
    36  H    0.148450
    37  N   -0.625276
    38  C   -0.060099
    39  C    0.639526
    40  O   -0.598582
    41  C   -0.395758
    42  C    0.603464
    43  N   -0.737509
    44  O   -0.516393
    45  H    0.381303
    46  H    0.208413
    47  H    0.208206
    48  H    0.198006
    49  H    0.363445
    50  H    0.357000
    51  N   -0.591963
    52  C   -0.096421
    53  C    0.674825
    54  O   -0.538874
    55  C   -0.308390
    56  C   -0.294607
    57  C   -0.131189
    58  N   -0.642867
    59  C    0.596426
    60  N   -0.683874
    61  N   -0.786505
    62  O   -0.550289
    63  H    0.433231
    64  H    0.420196
    65  H    0.193933
    66  H    0.129902
    67  H    0.186145
    68  H    0.162246
    69  H    0.228649
    70  H    0.135129
    71  H    0.188976
    72  H    0.339919
    73  H    0.319222
    74  H    0.374037
    75  H    0.329503
 Sum of Mulliken charges =   1.00000

 Dipole moment (field-independent basis, Debye):
    X=            -35.7724    Y=             -0.5488    Z=            -36.3669  Tot=             51.0149
 Quadrupole moment (field-independent basis, Debye-Ang):
   XX=            100.5593   YY=           -219.9446   ZZ=            119.1400
   XY=             32.0837   XZ=            241.2265   YZ=             -4.5806

 Normal termination of Gaussian 16 at Mon Jun  6 02:41:36 2022.
