 Gaussian 16, Revision C.01,
 Gaussian 16:  ES64L-G16RevC.01  3-Jul-2019

 ----------------------------------------------------------------------
 # B3LYP/6-31G* empiricaldispersion=gd3 guess=read geom=check nosymm in
 tegral(ultrafinegrid)
 ----------------------------------------------------------------------

 ------------------------------------------------------
 Candidate Structure: Conf:123 Charge calc in gas phase
 ------------------------------------------------------
 Structure from the checkpoint file:  "conf-123.chk"
 Charge =  1 Multiplicity = 1

                          Input orientation:
 ---------------------------------------------------------------------
 Center     Atomic      Atomic             Coordinates (Angstroms)
 Number     Number       Type             X           Y           Z
 ---------------------------------------------------------------------
      1          7           0       -6.879302    2.220153   -7.725019
      2          6           0       -7.948541    1.339324   -7.125038
      3          6           0       -7.177316    0.348745   -6.241295
      4          8           0       -6.363706    0.842725   -5.457032
      5          6           0       -8.857752    0.809885   -8.228318
      6          6           0       -9.536610    1.945467   -8.994006
      7          7           0      -10.718392    1.646318   -9.566393
      8          8           0       -9.007254    3.057946   -9.104790
      9          1           0       -7.370855    2.916327   -8.325829
     10          1           0       -8.523239    1.968467   -6.438434
     11          1           0       -8.265108    0.228874   -8.939131
     12          1           0       -9.593223    0.134958   -7.782898
     13          1           0      -11.184944    2.355452  -10.117797
     14          1           0      -11.158024    0.742518   -9.467306
     15          1           0       -6.336942    2.647394   -6.967154
     16          1           0       -6.247007    1.603706   -8.283968
     17          7           0       -7.382538   -0.970272   -6.397834
     18          6           0       -6.953255   -1.917267   -5.372111
     19          6           0       -6.016106   -3.018532   -5.906465
     20          8           0       -6.205640   -4.188530   -5.577455
     21          6           0       -8.207442   -2.526607   -4.692733
     22          6           0       -9.226525   -1.447428   -4.404905
     23          6           0       -9.048223   -0.552728   -3.343083
     24          6           0      -10.307814   -1.249606   -5.276072
     25          6           0       -9.921992    0.520974   -3.160262
     26          6           0      -11.185471   -0.178306   -5.096088
     27          6           0      -10.990341    0.715057   -4.039306
     28          1           0       -8.009800   -1.329544   -7.117338
     29          1           0       -6.388065   -1.329268   -4.641766
     30          1           0       -8.633807   -3.279279   -5.362381
     31          1           0       -7.890813   -3.053150   -3.788315
     32          1           0       -8.213531   -0.690653   -2.659781
     33          1           0      -10.456051   -1.937174   -6.106994
     34          1           0       -9.770219    1.203855   -2.329213
     35          1           0      -12.028073   -0.048290   -5.770802
     36          1           0      -11.674327    1.546061   -3.892082
     37          7           0       -4.953638   -2.680138   -6.697415
     38          6           0       -4.677384   -1.410441   -7.354236
     39          6           0       -5.571244   -1.142338   -8.582907
     40          8           0       -5.763193    0.030205   -8.967868
     41          6           0       -3.187983   -1.283045   -7.732071
     42          6           0       -2.712358   -2.351813   -8.718844
     43          7           0       -1.542359   -2.085787   -9.348854
     44          8           0       -3.351372   -3.383538   -8.915168
     45          1           0       -4.458619   -3.477480   -7.090576
     46          1           0       -4.881385   -0.594927   -6.658190
     47          1           0       -2.589044   -1.360244   -6.816218
     48          1           0       -3.023287   -0.281414   -8.144679
     49          1           0       -1.138330   -2.808432   -9.930189
     50          1           0       -0.981672   -1.272942   -9.138766
     51          7           0       -6.117876   -2.207090   -9.184390
     52          6           0       -7.057626   -2.092779  -10.280995
     53          6           0       -8.484283   -2.382766   -9.770710
     54          8           0       -8.813626   -2.266561   -8.602079
     55          6           0       -6.569594   -2.855248  -11.537950
     56          6           0       -6.114875   -4.309072  -11.351877
     57          6           0       -7.212199   -5.313469  -10.986635
     58          7           0       -7.982662   -4.952513   -9.784894
     59          6           0       -7.409877   -5.156611   -8.523867
     60          7           0       -6.127641   -5.216757   -8.418961
     61          7           0       -8.340719   -5.262943   -7.501727
     62          8           0       -9.444154   -2.538864  -10.699443
     63          1           0       -9.051058   -2.697330  -11.574303
     64          1           0       -5.885738   -3.153253   -8.860034
     65          1           0       -7.087998   -1.027526  -10.548174
     66          1           0       -7.334715   -2.791433  -12.329079
     67          1           0       -5.721491   -2.278635  -11.922902
     68          1           0       -5.676483   -4.639156  -12.302080
     69          1           0       -5.315008   -4.358682  -10.609285
     70          1           0       -7.940124   -5.375264  -11.805098
     71          1           0       -6.754965   -6.303100  -10.865345
     72          1           0       -8.942533   -5.275951   -9.828158
     73          1           0       -5.859521   -5.337862   -7.442320
     74          1           0       -7.939194   -5.147611   -6.576321
     75          1           0       -9.192578   -4.726897   -7.626390
 ---------------------------------------------------------------------

 SCF Done:  E(RB3LYP) =  -1917.49782980     A.U. after    1 cycles

 Alpha  occ. eigenvalues --  -19.31295 -19.25721 -19.25007 -19.24497 -19.24001
 Alpha  occ. eigenvalues --  -19.22052 -19.21913 -14.55428 -14.48575 -14.47739
 Alpha  occ. eigenvalues --  -14.47340 -14.45981 -14.45978 -14.44093 -14.42630
 Alpha  occ. eigenvalues --  -14.36547 -10.44447 -10.42614 -10.41459 -10.41063
 Alpha  occ. eigenvalues --  -10.39737 -10.39508 -10.38494 -10.36687 -10.35668
 Alpha  occ. eigenvalues --  -10.35092 -10.34066 -10.33261 -10.31309 -10.30726
 Alpha  occ. eigenvalues --  -10.30573 -10.28605 -10.28504 -10.27912 -10.27763
 Alpha  occ. eigenvalues --  -10.27561 -10.27510 -10.27442 -10.27211  -1.22172
 Alpha  occ. eigenvalues --   -1.16959  -1.16358  -1.15659  -1.14004  -1.13703
 Alpha  occ. eigenvalues --   -1.13641  -1.10452  -1.06330  -1.05003  -1.04541
 Alpha  occ. eigenvalues --   -1.03483  -1.02358  -1.00780  -0.97346  -0.94332
 Alpha  occ. eigenvalues --   -0.92472  -0.92179  -0.90498  -0.88833  -0.88083
 Alpha  occ. eigenvalues --   -0.84329  -0.83512  -0.83058  -0.80945  -0.79033
 Alpha  occ. eigenvalues --   -0.77325  -0.75812  -0.73836  -0.72992  -0.72270
 Alpha  occ. eigenvalues --   -0.71386  -0.70809  -0.70097  -0.69183  -0.69092
 Alpha  occ. eigenvalues --   -0.68707  -0.68485  -0.67075  -0.66891  -0.66292
 Alpha  occ. eigenvalues --   -0.65470  -0.64208  -0.63769  -0.62782  -0.62725
 Alpha  occ. eigenvalues --   -0.61987  -0.60625  -0.60223  -0.59682  -0.59387
 Alpha  occ. eigenvalues --   -0.59019  -0.58637  -0.57971  -0.57308  -0.56543
 Alpha  occ. eigenvalues --   -0.56003  -0.55320  -0.55200  -0.55040  -0.54699
 Alpha  occ. eigenvalues --   -0.54200  -0.54074  -0.53855  -0.53619  -0.53415
 Alpha  occ. eigenvalues --   -0.52957  -0.52538  -0.51675  -0.51566  -0.51423
 Alpha  occ. eigenvalues --   -0.50728  -0.50579  -0.50347  -0.50090  -0.49703
 Alpha  occ. eigenvalues --   -0.49596  -0.48564  -0.48291  -0.47859  -0.47603
 Alpha  occ. eigenvalues --   -0.47002  -0.46533  -0.45876  -0.44964  -0.44343
 Alpha  occ. eigenvalues --   -0.44112  -0.43395  -0.42891  -0.42599  -0.42529
 Alpha  occ. eigenvalues --   -0.40151  -0.39869  -0.39768  -0.39285  -0.38496
 Alpha  occ. eigenvalues --   -0.38068  -0.37907  -0.36938  -0.36325  -0.35760
 Alpha  occ. eigenvalues --   -0.35049  -0.34507  -0.34075  -0.33650  -0.33070
 Alpha  occ. eigenvalues --   -0.31328
 Alpha virt. eigenvalues --   -0.11741  -0.11045  -0.10203  -0.10130  -0.09308
 Alpha virt. eigenvalues --   -0.08862  -0.08710  -0.07738  -0.06108  -0.04924
 Alpha virt. eigenvalues --   -0.04004  -0.03291  -0.01913  -0.01749  -0.00879

 Mulliken charges:
               1
     1  N   -0.764628
     2  C   -0.110188
     3  C    0.642975
     4  O   -0.540959
     5  C   -0.427017
     6  C    0.640060
     7  N   -0.737608
     8  O   -0.534615
     9  H    0.429810
    10  H    0.234536
    11  H    0.211962
    12  H    0.208697
    13  H    0.373273
    14  H    0.366709
    15  H    0.406568
    16  H    0.434113
    17  N   -0.655673
    18  C   -0.079018
    19  C    0.631372
    20  O   -0.522792
    21  C   -0.366307
    22  C    0.166982
    23  C   -0.173896
    24  C   -0.207135
    25  C   -0.131662
    26  C   -0.144739
    27  C   -0.137377
    28  H    0.423612
    29  H    0.219482
    30  H    0.149732
    31  H    0.192113
    32  H    0.144500
    33  H    0.135767
    34  H    0.153374
    35  H    0.135134
    36  H    0.149048
    37  N   -0.626664
    38  C   -0.063394
    39  C    0.653971
    40  O   -0.616851
    41  C   -0.394355
    42  C    0.603386
    43  N   -0.738465
    44  O   -0.507966
    45  H    0.381854
    46  H    0.199919
    47  H    0.209257
    48  H    0.183604
    49  H    0.363852
    50  H    0.354535
    51  N   -0.597902
    52  C   -0.106358
    53  C    0.672725
    54  O   -0.513923
    55  C   -0.297271
    56  C   -0.293505
    57  C   -0.126391
    58  N   -0.636928
    59  C    0.599528
    60  N   -0.693962
    61  N   -0.775740
    62  O   -0.569888
    63  H    0.427140
    64  H    0.427767
    65  H    0.202482
    66  H    0.124386
    67  H    0.179959
    68  H    0.157762
    69  H    0.225894
    70  H    0.135681
    71  H    0.183973
    72  H    0.336599
    73  H    0.315219
    74  H    0.371052
    75  H    0.332815
 Sum of Mulliken charges =   1.00000

 Dipole moment (field-independent basis, Debye):
    X=            -34.4918    Y=             -0.4859    Z=            -43.2858  Tot=             55.3496
 Quadrupole moment (field-independent basis, Debye-Ang):
   XX=             94.3224   YY=           -212.4067   ZZ=            195.3255
   XY=              1.8948   XZ=            311.3778   YZ=             27.3340

 Normal termination of Gaussian 16 at Mon Jun  6 02:41:24 2022.
