 Gaussian 16, Revision C.01,
 Gaussian 16:  ES64L-G16RevC.01  3-Jul-2019

 ----------------------------------------------------------------------
 # B3LYP/6-31G* empiricaldispersion=gd3 guess=read geom=check nosymm in
 tegral(ultrafinegrid)
 ----------------------------------------------------------------------

 -----------------------------------------------------
 Candidate Structure: Conf:14 Charge calc in gas phase
 -----------------------------------------------------
 Structure from the checkpoint file:  "conf-14.chk"
 Charge =  1 Multiplicity = 1

                          Input orientation:
 ---------------------------------------------------------------------
 Center     Atomic      Atomic             Coordinates (Angstroms)
 Number     Number       Type             X           Y           Z
 ---------------------------------------------------------------------
      1          7           0       -7.404100   -5.465845   -7.268144
      2          6           0       -6.245731   -4.526883   -7.029949
      3          6           0       -6.802091   -3.446758   -6.088782
      4          8           0       -7.352220   -3.849226   -5.061525
      5          6           0       -5.630345   -4.119068   -8.364969
      6          6           0       -5.124917   -5.334621   -9.141620
      7          7           0       -4.100230   -5.112089   -9.985599
      8          8           0       -5.653370   -6.447243   -9.018300
      9          1           0       -8.165591   -4.916832   -7.731157
     10          1           0       -5.513970   -5.086189   -6.439276
     11          1           0       -6.378680   -3.609220   -8.978369
     12          1           0       -4.824170   -3.405218   -8.173842
     13          1           0       -3.760760   -5.879293  -10.551918
     14          1           0       -3.656458   -4.209491  -10.076267
     15          1           0       -7.043104   -6.218795   -7.895628
     16          1           0       -7.742538   -5.816881   -6.366593
     17          7           0       -6.715330   -2.155707   -6.454492
     18          6           0       -6.894929   -1.078602   -5.484532
     19          6           0       -8.114134   -0.172199   -5.744245
     20          8           0       -8.038222    1.034177   -5.504358
     21          6           0       -5.592591   -0.237591   -5.426281
     22          6           0       -4.377010   -1.135298   -5.374420
     23          6           0       -4.043744   -1.825158   -4.202383
     24          6           0       -3.622331   -1.369495   -6.533101
     25          6           0       -2.985972   -2.736222   -4.187449
     26          6           0       -2.561169   -2.278209   -6.520058
     27          6           0       -2.243397   -2.968580   -5.347796
     28          1           0       -6.313042   -1.892344   -7.355065
     29          1           0       -7.066458   -1.567667   -4.519309
     30          1           0       -5.554589    0.401905   -6.314155
     31          1           0       -5.654423    0.425385   -4.559284
     32          1           0       -4.618603   -1.652016   -3.295279
     33          1           0       -3.877330   -0.847314   -7.452799
     34          1           0       -2.738049   -3.259910   -3.268537
     35          1           0       -1.973240   -2.435758   -7.421153
     36          1           0       -1.414967   -3.671155   -5.333662
     37          7           0       -9.293902   -0.690592   -6.186298
     38          6           0       -9.614118   -2.006507   -6.715394
     39          6           0       -8.980026   -2.295647   -8.087772
     40          8           0       -8.856341   -3.472758   -8.487375
     41          6           0      -11.149458   -2.155022   -6.854585
     42          6           0      -11.747307   -1.126934   -7.817875
     43          7           0      -12.588358   -1.605604   -8.765174
     44          8           0      -11.456585    0.068871   -7.741332
     45          1           0       -9.998812    0.020294   -6.378878
     46          1           0       -9.269449   -2.783213   -6.029334
     47          1           0      -11.605980   -1.999679   -5.870487
     48          1           0      -11.364022   -3.180014   -7.169833
     49          1           0      -13.084042   -0.937395   -9.341925
     50          1           0      -12.906403   -2.563786   -8.772472
     51          7           0       -8.647830   -1.226257   -8.813490
     52          6           0       -8.096542   -1.287350  -10.150472
     53          6           0       -6.593022   -0.940766  -10.097302
     54          8           0       -5.919958   -1.163246   -9.106447
     55          6           0       -8.996978   -0.535831  -11.158568
     56          6           0       -9.015814    1.004508  -11.161585
     57          6           0       -9.429964    1.748011   -9.881099
     58          7           0       -8.529574    1.599406   -8.710099
     59          6           0       -7.215350    2.126820   -8.785304
     60          7           0       -6.605521    2.143495   -9.917693
     61          7           0       -6.739631    2.580702   -7.574811
     62          8           0       -5.995831   -0.564740  -11.228691
     63          1           0       -6.629492   -0.161602  -11.845411
     64          1           0       -8.716657   -0.269912   -8.436528
     65          1           0       -8.108520   -2.346934  -10.438844
     66          1           0       -8.726820   -0.874452  -12.169108
     67          1           0      -10.008501   -0.922272  -10.983715
     68          1           0       -8.050095    1.407198  -11.471006
     69          1           0       -9.742900    1.299406  -11.929274
     70          1           0       -9.521663    2.810547  -10.141920
     71          1           0      -10.408110    1.395394   -9.538739
     72          1           0       -9.001838    1.933652   -7.873313
     73          1           0       -5.656206    2.504039   -9.820628
     74          1           0       -5.750128    2.779309   -7.525549
     75          1           0       -7.146591    2.223929   -6.712995
 ---------------------------------------------------------------------

 SCF Done:  E(RB3LYP) =  -1917.49612976     A.U. after    1 cycles

 Alpha  occ. eigenvalues --  -19.30498 -19.25577 -19.24812 -19.24806 -19.24073
 Alpha  occ. eigenvalues --  -19.23423 -19.22479 -14.55324 -14.48336 -14.47882
 Alpha  occ. eigenvalues --  -14.47614 -14.47333 -14.46451 -14.44057 -14.42316
 Alpha  occ. eigenvalues --  -14.36754 -10.43937 -10.42388 -10.41517 -10.41321
 Alpha  occ. eigenvalues --  -10.41193 -10.40061 -10.38446 -10.36744 -10.35795
 Alpha  occ. eigenvalues --  -10.35487 -10.34396 -10.32925 -10.32215 -10.30430
 Alpha  occ. eigenvalues --  -10.30204 -10.28643 -10.28401 -10.27718 -10.27542
 Alpha  occ. eigenvalues --  -10.27440 -10.27435 -10.27384 -10.27357  -1.21688
 Alpha  occ. eigenvalues --   -1.16893  -1.16304  -1.15923  -1.15145  -1.14420
 Alpha  occ. eigenvalues --   -1.13349  -1.10379  -1.05989  -1.05335  -1.04730
 Alpha  occ. eigenvalues --   -1.03249  -1.02850  -1.02237  -0.96934  -0.94207
 Alpha  occ. eigenvalues --   -0.92344  -0.92017  -0.90775  -0.89329  -0.88197
 Alpha  occ. eigenvalues --   -0.84238  -0.83472  -0.82900  -0.80857  -0.79524
 Alpha  occ. eigenvalues --   -0.77210  -0.75860  -0.73574  -0.72892  -0.72150
 Alpha  occ. eigenvalues --   -0.71546  -0.70819  -0.70582  -0.70106  -0.69343
 Alpha  occ. eigenvalues --   -0.68931  -0.68628  -0.67100  -0.66962  -0.66064
 Alpha  occ. eigenvalues --   -0.65416  -0.64862  -0.64077  -0.62922  -0.62606
 Alpha  occ. eigenvalues --   -0.61987  -0.60683  -0.60532  -0.59969  -0.59214
 Alpha  occ. eigenvalues --   -0.59083  -0.58879  -0.57891  -0.57544  -0.57142
 Alpha  occ. eigenvalues --   -0.55947  -0.55685  -0.55052  -0.54845  -0.54733
 Alpha  occ. eigenvalues --   -0.54141  -0.53837  -0.53776  -0.53564  -0.53350
 Alpha  occ. eigenvalues --   -0.52935  -0.52542  -0.52185  -0.51748  -0.51553
 Alpha  occ. eigenvalues --   -0.51073  -0.50537  -0.50408  -0.50125  -0.49895
 Alpha  occ. eigenvalues --   -0.49735  -0.48724  -0.48540  -0.48327  -0.47753
 Alpha  occ. eigenvalues --   -0.47275  -0.46813  -0.45812  -0.45037  -0.44221
 Alpha  occ. eigenvalues --   -0.44095  -0.43087  -0.42701  -0.42494  -0.42348
 Alpha  occ. eigenvalues --   -0.40432  -0.39643  -0.39543  -0.39088  -0.39001
 Alpha  occ. eigenvalues --   -0.38660  -0.37960  -0.37666  -0.37559  -0.35702
 Alpha  occ. eigenvalues --   -0.35444  -0.34621  -0.34261  -0.33578  -0.32973
 Alpha  occ. eigenvalues --   -0.31246
 Alpha virt. eigenvalues --   -0.11834  -0.11012  -0.10489  -0.10009  -0.09592
 Alpha virt. eigenvalues --   -0.09386  -0.08772  -0.08691  -0.05172  -0.04589
 Alpha virt. eigenvalues --   -0.03509  -0.03143  -0.02686  -0.01369  -0.00623

 Mulliken charges:
               1
     1  N   -0.767673
     2  C   -0.109167
     3  C    0.628220
     4  O   -0.534671
     5  C   -0.427315
     6  C    0.640831
     7  N   -0.736272
     8  O   -0.537084
     9  H    0.431892
    10  H    0.232456
    11  H    0.216316
    12  H    0.212211
    13  H    0.373144
    14  H    0.367351
    15  H    0.430699
    16  H    0.404583
    17  N   -0.661666
    18  C   -0.070313
    19  C    0.629207
    20  O   -0.533458
    21  C   -0.382743
    22  C    0.167511
    23  C   -0.178759
    24  C   -0.214972
    25  C   -0.132517
    26  C   -0.146998
    27  C   -0.133900
    28  H    0.433441
    29  H    0.221752
    30  H    0.157036
    31  H    0.191715
    32  H    0.142836
    33  H    0.155251
    34  H    0.152648
    35  H    0.134263
    36  H    0.148282
    37  N   -0.631983
    38  C   -0.054749
    39  C    0.647485
    40  O   -0.618828
    41  C   -0.390145
    42  C    0.608216
    43  N   -0.733230
    44  O   -0.519782
    45  H    0.378907
    46  H    0.201003
    47  H    0.217973
    48  H    0.174292
    49  H    0.364190
    50  H    0.359214
    51  N   -0.597714
    52  C   -0.108707
    53  C    0.653643
    54  O   -0.489797
    55  C   -0.315914
    56  C   -0.287416
    57  C   -0.146983
    58  N   -0.678584
    59  C    0.620623
    60  N   -0.669607
    61  N   -0.794923
    62  O   -0.548334
    63  H    0.444893
    64  H    0.430027
    65  H    0.207428
    66  H    0.152746
    67  H    0.167335
    68  H    0.194948
    69  H    0.156301
    70  H    0.171770
    71  H    0.174179
    72  H    0.348343
    73  H    0.283995
    74  H    0.332537
    75  H    0.392509
 Sum of Mulliken charges =   1.00000

 Dipole moment (field-independent basis, Debye):
    X=            -37.4260    Y=            -14.8260    Z=            -41.4612  Tot=             57.7888
 Quadrupole moment (field-independent basis, Debye-Ang):
   XX=            135.3267   YY=           -161.4162   ZZ=            156.9994
   XY=            105.7883   XZ=            328.4968   YZ=            117.9346

 Normal termination of Gaussian 16 at Mon Jun  6 02:41:23 2022.
