 Gaussian 16, Revision C.01,
 Gaussian 16:  ES64L-G16RevC.01  3-Jul-2019

 ----------------------------------------------------------------------
 # B3LYP/6-31G* empiricaldispersion=gd3 guess=read geom=check nosymm in
 tegral(ultrafinegrid)
 ----------------------------------------------------------------------

 ------------------------------------------------------
 Candidate Structure: Conf:841 Charge calc in gas phase
 ------------------------------------------------------
 Structure from the checkpoint file:  "conf-841.chk"
 Charge =  1 Multiplicity = 1

                          Input orientation:
 ---------------------------------------------------------------------
 Center     Atomic      Atomic             Coordinates (Angstroms)
 Number     Number       Type             X           Y           Z
 ---------------------------------------------------------------------
      1          7           0        9.217625   19.343488   14.472121
      2          6           0       10.573876   19.905224   14.465427
      3          6           0       10.986183   20.063827   15.940305
      4          8           0       10.696781   21.061084   16.579078
      5          6           0       10.560221   21.287666   13.800016
      6          6           0       10.455908   21.223123   12.253526
      7          6           0       11.766259   20.799422   11.652778
      8          8           0       12.087678   19.643021   11.372626
      9          8           0       12.608974   21.820215   11.494251
     10          1           0       13.462815   21.485328   11.160807
     11          1           0       11.309869   19.268804   13.940381
     12          1           0       11.457612   21.850546   14.076518
     13          1           0        9.705785   21.839637   14.197123
     14          1           0        9.684558   20.517737   11.931870
     15          1           0       10.202545   22.213345   11.865324
     16          1           0        8.873959   19.172652   13.531479
     17          1           0        9.171973   18.468847   14.990401
     18          7           0       11.646085   19.006283   16.519184
     19          6           0       12.286249   17.873573   15.875216
     20          6           0       11.266008   16.882431   15.284856
     21          8           0       10.239437   16.561964   15.865585
     22          6           0       13.127883   17.118572   16.929859
     23          6           0       13.950327   15.921455   16.414941
     24          6           0       15.024820   16.337000   15.398159
     25          6           0       14.596560   15.196628   17.605209
     26          1           0       11.808667   19.132938   17.511455
     27          1           0       12.950585   18.230786   15.076958
     28          1           0       12.435532   16.775738   17.709074
     29          1           0       13.809460   17.845194   17.392845
     30          1           0       13.269090   15.211310   15.924156
     31          1           0       15.723617   17.054806   15.845138
     32          1           0       15.603211   15.466533   15.070525
     33          1           0       14.606762   16.805178   14.497777
     34          1           0       15.288735   15.860574   18.137726
     35          1           0       13.841225   14.854543   18.321114
     36          1           0       15.164937   14.322152   17.270223
     37          7           0       11.617024   16.353186   14.066661
     38          6           0       10.980785   15.120167   13.598728
     39          6           0       11.862567   14.442283   12.559922
     40          8           0       11.460422   13.799305   11.609363
     41          6           0        9.525271   15.291475   13.127505
     42          6           0        9.231307   16.444731   12.160883
     43          6           0        9.918688   16.393353   10.793476
     44          7           0       11.303062   16.907218   10.883138
     45          6           0       12.296316   16.626616   10.030978
     46          7           0       12.344103   15.446064    9.391574
     47          7           0       13.257367   17.540763    9.828889
     48          8           0       13.178339   14.588979   12.828170
     49          1           0       13.675165   14.046726   12.186254
     50          1           0       12.561024   16.523556   13.747416
     51          1           0       10.953006   14.411781   14.443576
     52          1           0        8.928956   15.449349   14.028849
     53          1           0        9.209299   14.341086   12.684637
     54          1           0        8.150440   16.452511   11.980180
     55          1           0        9.465101   17.398484   12.648975
     56          1           0        9.376754   17.017694   10.072308
     57          1           0        9.929499   15.372628   10.412492
     58          1           0       11.383689   17.822942   11.329703
     59          1           0       11.875710   14.639737    9.795177
     60          1           0       13.029081   15.282053    8.668292
     61          1           0       14.143535   17.284751    9.418614
     62          1           0       13.146826   18.472217   10.226790
 ---------------------------------------------------------------------

 SCF Done:  E(RB3LYP) =  -1447.49061883     A.U. after    2 cycles

 Alpha  occ. eigenvalues --  -19.34092 -19.33270 -19.28900 -19.28394 -19.22757
 Alpha  occ. eigenvalues --  -19.19197 -14.52265 -14.52235 -14.51636 -14.47906
 Alpha  occ. eigenvalues --  -14.44391 -14.40629 -10.48715 -10.46483 -10.46275
 Alpha  occ. eigenvalues --  -10.39541 -10.36711 -10.36448 -10.35853 -10.33980
 Alpha  occ. eigenvalues --  -10.31678 -10.31450 -10.30950 -10.29915 -10.28842
 Alpha  occ. eigenvalues --  -10.28801 -10.28764 -10.27360 -10.25768  -1.25011
 Alpha  occ. eigenvalues --   -1.24618  -1.17174  -1.15864  -1.15359  -1.14890
 Alpha  occ. eigenvalues --   -1.11378  -1.06193  -1.05361  -1.04410  -1.01222
 Alpha  occ. eigenvalues --   -0.97920  -0.92409  -0.90720  -0.90324  -0.88275
 Alpha  occ. eigenvalues --   -0.83960  -0.82297  -0.81742  -0.79058  -0.77700
 Alpha  occ. eigenvalues --   -0.76147  -0.75891  -0.74896  -0.74083  -0.71811
 Alpha  occ. eigenvalues --   -0.71484  -0.70317  -0.68809  -0.67352  -0.66836
 Alpha  occ. eigenvalues --   -0.65782  -0.64807  -0.64429  -0.63121  -0.62747
 Alpha  occ. eigenvalues --   -0.62084  -0.61478  -0.60741  -0.60020  -0.59606
 Alpha  occ. eigenvalues --   -0.59049  -0.58630  -0.57705  -0.56942  -0.56508
 Alpha  occ. eigenvalues --   -0.56179  -0.55373  -0.54700  -0.54411  -0.53513
 Alpha  occ. eigenvalues --   -0.53044  -0.52637  -0.52401  -0.52232  -0.51734
 Alpha  occ. eigenvalues --   -0.50615  -0.49798  -0.49069  -0.47904  -0.47228
 Alpha  occ. eigenvalues --   -0.47123  -0.46775  -0.46604  -0.46470  -0.46278
 Alpha  occ. eigenvalues --   -0.45755  -0.45508  -0.45420  -0.45206  -0.44301
 Alpha  occ. eigenvalues --   -0.43674  -0.42518  -0.42173  -0.42042  -0.41873
 Alpha  occ. eigenvalues --   -0.41776  -0.40817  -0.37695  -0.36376  -0.33960
 Alpha  occ. eigenvalues --   -0.33116  -0.31855
 Alpha virt. eigenvalues --   -0.13974  -0.13428  -0.13043  -0.09518  -0.08225
 Alpha virt. eigenvalues --   -0.07080  -0.06345  -0.05803  -0.04364  -0.03568
 Alpha virt. eigenvalues --   -0.02197  -0.01490  -0.00221   0.00595   0.00717

 Mulliken charges:
               1
     1  N   -0.732038
     2  C   -0.065858
     3  C    0.616399
     4  O   -0.483009
     5  C   -0.278118
     6  C   -0.349814
     7  C    0.589152
     8  O   -0.519412
     9  O   -0.510146
    10  H    0.421681
    11  H    0.104622
    12  H    0.174046
    13  H    0.214032
    14  H    0.163671
    15  H    0.206219
    16  H    0.304223
    17  H    0.342567
    18  N   -0.611927
    19  C   -0.034650
    20  C    0.615091
    21  O   -0.508398
    22  C   -0.303983
    23  C   -0.094085
    24  C   -0.445171
    25  C   -0.446562
    26  H    0.346663
    27  H    0.141072
    28  H    0.179261
    29  H    0.160952
    30  H    0.129446
    31  H    0.160952
    32  H    0.156182
    33  H    0.109397
    34  H    0.155842
    35  H    0.160779
    36  H    0.154200
    37  N   -0.628117
    38  C   -0.016549
    39  C    0.592937
    40  O   -0.490976
    41  C   -0.283310
    42  C   -0.297995
    43  C   -0.159433
    44  N   -0.633519
    45  C    0.778052
    46  N   -0.766510
    47  N   -0.779323
    48  O   -0.563524
    49  H    0.426056
    50  H    0.355394
    51  H    0.216734
    52  H    0.202389
    53  H    0.175986
    54  H    0.180950
    55  H    0.139967
    56  H    0.186040
    57  H    0.193026
    58  H    0.398016
    59  H    0.411537
    60  H    0.372584
    61  H    0.367410
    62  H    0.398901
 Sum of Mulliken charges =   1.00000

 Dipole moment (field-independent basis, Debye):
    X=             63.4878    Y=             79.8521    Z=             51.2560  Tot=            114.1676
 Quadrupole moment (field-independent basis, Debye-Ang):
   XX=            679.7721   YY=           1172.4824   ZZ=            386.1086
   XY=           1061.4625   XZ=            696.8380   YZ=            833.6656

 Normal termination of Gaussian 16 at Tue May 24 03:34:22 2022.
