 Gaussian 16, Revision C.01,
 Gaussian 16:  ES64L-G16RevC.01  3-Jul-2019

 ----------------------------------------------------------------------
 # B3LYP/6-31G* empiricaldispersion=gd3 guess=read geom=check nosymm in
 tegral(ultrafinegrid)
 ----------------------------------------------------------------------

 ------------------------------------------------------
 Candidate Structure: Conf:797 Charge calc in gas phase
 ------------------------------------------------------
 Structure from the checkpoint file:  "conf-797.chk"
 Charge =  1 Multiplicity = 1

                          Input orientation:
 ---------------------------------------------------------------------
 Center     Atomic      Atomic             Coordinates (Angstroms)
 Number     Number       Type             X           Y           Z
 ---------------------------------------------------------------------
      1          7           0        9.086711   16.541111   12.876508
      2          6           0        9.912918   16.852465   11.701967
      3          6           0        9.254172   18.049188   10.993478
      4          8           0        8.297471   17.908981   10.251675
      5          6           0        9.958891   15.649916   10.750989
      6          6           0       10.378268   14.329011   11.444402
      7          6           0       11.705141   14.461077   12.137005
      8          8           0       11.873614   15.009298   13.228224
      9          8           0       12.728837   13.972055   11.431805
     10          1           0       13.553006   14.123452   11.933248
     11          1           0       10.950631   17.114159   11.971518
     12          1           0       10.641258   15.863886    9.919475
     13          1           0        8.959054   15.509442   10.333514
     14          1           0        9.629648   14.068034   12.197431
     15          1           0       10.431761   13.526149   10.705820
     16          1           0        9.619228   15.949073   13.508685
     17          1           0        8.867595   17.394389   13.387315
     18          7           0        9.736581   19.302255   11.304600
     19          6           0       11.006796   19.660056   11.900671
     20          6           0       11.109114   19.204705   13.371564
     21          8           0       10.156969   19.190915   14.129430
     22          6           0       11.192860   21.193913   11.877694
     23          6           0       11.229900   21.843458   10.478556
     24          6           0       11.405783   23.361589   10.631748
     25          6           0       12.328155   21.247990    9.587573
     26          1           0        9.205638   20.044011   10.864631
     27          1           0       11.830795   19.199825   11.335888
     28          1           0       12.135107   21.428305   12.393087
     29          1           0       10.388365   21.637037   12.478346
     30          1           0       10.263191   21.671769    9.983449
     31          1           0       10.615410   23.797344   11.253417
     32          1           0       12.370824   23.597830   11.098050
     33          1           0       11.377590   23.856436    9.655454
     34          1           0       13.313143   21.342575   10.064430
     35          1           0       12.153286   20.189024    9.365237
     36          1           0       12.374391   21.775613    8.629453
     37          7           0       12.394162   18.802469   13.720346
     38          6           0       12.938622   18.639240   15.075507
     39          6           0       14.042622   17.576099   15.060804
     40          8           0       14.861064   17.468662   15.940339
     41          6           0       11.910440   18.301781   16.184653
     42          6           0       11.011094   17.061130   15.980134
     43          6           0       11.433833   15.782076   16.718790
     44          7           0       12.562539   15.113096   16.056988
     45          6           0       13.694606   14.693883   16.614444
     46          7           0       13.800911   14.510361   17.939902
     47          7           0       14.740044   14.410585   15.810807
     48          8           0       14.039784   16.701516   14.019297
     49          1           0       13.215672   16.804657   13.497938
     50          1           0       13.099225   19.078392   13.043567
     51          1           0       13.439434   19.563763   15.389414
     52          1           0       11.272076   19.177148   16.299455
     53          1           0       12.499482   18.207441   17.104734
     54          1           0       10.006927   17.312204   16.334832
     55          1           0       10.888567   16.839013   14.917400
     56          1           0       10.590810   15.083137   16.760654
     57          1           0       11.720549   16.022661   17.746919
     58          1           0       12.477771   14.992053   15.046726
     59          1           0       12.985724   14.455350   18.532209
     60          1           0       14.704591   14.462228   18.387924
     61          1           0       15.586827   14.041931   16.221705
     62          1           0       14.864695   15.017293   15.004951
 ---------------------------------------------------------------------

 SCF Done:  E(RB3LYP) =  -1447.48163603     A.U. after    1 cycles

 Alpha  occ. eigenvalues --  -19.32864 -19.32790 -19.27820 -19.26587 -19.24026
 Alpha  occ. eigenvalues --  -19.19625 -14.52854 -14.51706 -14.51215 -14.49431
 Alpha  occ. eigenvalues --  -14.44682 -14.40245 -10.48432 -10.45520 -10.44860
 Alpha  occ. eigenvalues --  -10.40989 -10.37179 -10.37018 -10.36587 -10.34410
 Alpha  occ. eigenvalues --  -10.31504 -10.31504 -10.31177 -10.30343 -10.29187
 Alpha  occ. eigenvalues --  -10.28403 -10.28250 -10.25974 -10.25287  -1.23953
 Alpha  occ. eigenvalues --   -1.23295  -1.16911  -1.16038  -1.15001  -1.14537
 Alpha  occ. eigenvalues --   -1.11752  -1.06339  -1.05466  -1.05013  -1.01566
 Alpha  occ. eigenvalues --   -0.97804  -0.92875  -0.90362  -0.89407  -0.88543
 Alpha  occ. eigenvalues --   -0.84239  -0.81752  -0.81428  -0.78829  -0.76804
 Alpha  occ. eigenvalues --   -0.75939  -0.75040  -0.74894  -0.74207  -0.72801
 Alpha  occ. eigenvalues --   -0.70751  -0.70415  -0.68854  -0.67442  -0.66595
 Alpha  occ. eigenvalues --   -0.66103  -0.65416  -0.64558  -0.63658  -0.62845
 Alpha  occ. eigenvalues --   -0.61808  -0.61007  -0.60355  -0.59224  -0.58932
 Alpha  occ. eigenvalues --   -0.58334  -0.57925  -0.57631  -0.56871  -0.56315
 Alpha  occ. eigenvalues --   -0.55946  -0.55365  -0.54411  -0.53954  -0.53425
 Alpha  occ. eigenvalues --   -0.52839  -0.52117  -0.51985  -0.51567  -0.51126
 Alpha  occ. eigenvalues --   -0.50412  -0.49925  -0.49247  -0.48128  -0.47831
 Alpha  occ. eigenvalues --   -0.47206  -0.47030  -0.46706  -0.46429  -0.45940
 Alpha  occ. eigenvalues --   -0.45468  -0.45072  -0.44920  -0.44561  -0.43955
 Alpha  occ. eigenvalues --   -0.43832  -0.41916  -0.41579  -0.41501  -0.41158
 Alpha  occ. eigenvalues --   -0.40860  -0.40496  -0.38900  -0.36984  -0.34256
 Alpha  occ. eigenvalues --   -0.33086  -0.32413
 Alpha virt. eigenvalues --   -0.13551  -0.12845  -0.12156  -0.10606  -0.08211
 Alpha virt. eigenvalues --   -0.07332  -0.06901  -0.05071  -0.04350  -0.02567
 Alpha virt. eigenvalues --   -0.01585  -0.01357  -0.00661  -0.00362   0.00524

 Mulliken charges:
               1
     1  N   -0.736409
     2  C   -0.056991
     3  C    0.604804
     4  O   -0.479405
     5  C   -0.270421
     6  C   -0.359088
     7  C    0.585645
     8  O   -0.526468
     9  O   -0.517386
    10  H    0.414295
    11  H    0.095198
    12  H    0.153416
    13  H    0.215188
    14  H    0.201752
    15  H    0.198558
    16  H    0.309407
    17  H    0.338939
    18  N   -0.607856
    19  C   -0.045753
    20  C    0.632241
    21  O   -0.500417
    22  C   -0.300500
    23  C   -0.083975
    24  C   -0.445918
    25  C   -0.454541
    26  H    0.348243
    27  H    0.144739
    28  H    0.137248
    29  H    0.177151
    30  H    0.140704
    31  H    0.155723
    32  H    0.146756
    33  H    0.165216
    34  H    0.137354
    35  H    0.147380
    36  H    0.171638
    37  N   -0.673978
    38  C   -0.041461
    39  C    0.608273
    40  O   -0.464247
    41  C   -0.280727
    42  C   -0.304188
    43  C   -0.164716
    44  N   -0.616896
    45  C    0.785936
    46  N   -0.755659
    47  N   -0.750590
    48  O   -0.623451
    49  H    0.448891
    50  H    0.345535
    51  H    0.206779
    52  H    0.208776
    53  H    0.168621
    54  H    0.192497
    55  H    0.165275
    56  H    0.194494
    57  H    0.167928
    58  H    0.411123
    59  H    0.385230
    60  H    0.384350
    61  H    0.367618
    62  H    0.398120
 Sum of Mulliken charges =   1.00000

 Dipole moment (field-independent basis, Debye):
    X=             65.8231    Y=             77.7744    Z=             73.6466  Tot=            125.7193
 Quadrupole moment (field-independent basis, Debye-Ang):
   XX=            716.3455   YY=           1135.5689   ZZ=            997.0805
   XY=           1057.7595   XZ=           1000.3691   YZ=           1164.7404

 Normal termination of Gaussian 16 at Tue May 24 03:34:02 2022.
