 Gaussian 16, Revision C.01,
 Gaussian 16:  ES64L-G16RevC.01  3-Jul-2019

 ----------------------------------------------------------------------
 # B3LYP/6-31G* empiricaldispersion=gd3 guess=read geom=check nosymm in
 tegral(ultrafinegrid)
 ----------------------------------------------------------------------

 ------------------------------------------------------
 Candidate Structure: Conf:879 Charge calc in gas phase
 ------------------------------------------------------
 Structure from the checkpoint file:  "conf-879.chk"
 Charge =  1 Multiplicity = 1

                          Input orientation:
 ---------------------------------------------------------------------
 Center     Atomic      Atomic             Coordinates (Angstroms)
 Number     Number       Type             X           Y           Z
 ---------------------------------------------------------------------
      1          7           0        7.955757   17.128468   10.894168
      2          6           0        9.322768   17.582639   11.113359
      3          6           0        9.538334   19.059966   10.708836
      4          8           0        8.745719   19.626563    9.972395
      5          6           0       10.271810   16.658333   10.312186
      6          6           0       10.315916   15.225085   10.886819
      7          6           0       11.133867   15.134935   12.152211
      8          8           0       11.024420   15.904988   13.097180
      9          8           0       12.055682   14.157415   12.269971
     10          1           0       12.071325   13.580915   11.485869
     11          1           0        9.536388   17.477829   12.179106
     12          1           0       11.284217   17.069980   10.238099
     13          1           0        9.889877   16.597918    9.287446
     14          1           0        9.283320   14.940656   11.132786
     15          1           0       10.688329   14.518446   10.137233
     16          1           0        7.339946   17.547329   11.589119
     17          1           0        7.637965   17.510275   10.001411
     18          7           0       10.646418   19.703914   11.205308
     19          6           0       11.727464   19.153598   12.012456
     20          6           0       11.642984   19.665301   13.455397
     21          8           0       12.042845   20.795461   13.766216
     22          6           0       13.099146   19.505685   11.415418
     23          6           0       14.307643   18.924950   12.175410
     24          6           0       14.264229   17.390134   12.249550
     25          6           0       15.610570   19.400051   11.517671
     26          1           0       10.730627   20.673849   10.918502
     27          1           0       11.613614   18.073002   12.033949
     28          1           0       13.185492   20.598129   11.388521
     29          1           0       13.109902   19.150940   10.376280
     30          1           0       14.287203   19.315503   13.202668
     31          1           0       14.204751   16.950754   11.244578
     32          1           0       15.175513   17.003813   12.721649
     33          1           0       13.410051   17.025534   12.830841
     34          1           0       15.687178   19.028980   10.487849
     35          1           0       15.661985   20.493565   11.484949
     36          1           0       16.485701   19.039467   12.069589
     37          7           0       11.148070   18.800671   14.374595
     38          6           0       11.015492   19.165833   15.789623
     39          6           0       12.397687   19.128561   16.480221
     40          8           0       12.632339   18.441648   17.460813
     41          6           0        9.939529   18.352123   16.524070
     42          6           0        9.873140   16.821662   16.344433
     43          6           0       11.079893   15.982439   16.790477
     44          7           0       12.096030   15.900213   15.722383
     45          6           0       13.408653   15.705188   15.866309
     46          7           0       14.059520   16.107637   16.964807
     47          7           0       14.078487   15.067543   14.882605
     48          8           0       13.334806   19.899496   15.942747
     49          1           0       12.957458   20.446605   15.199650
     50          1           0       10.948618   17.849891   14.092426
     51          1           0       10.708519   20.219553   15.801934
     52          1           0        8.967445   18.751247   16.213831
     53          1           0       10.047511   18.579440   17.589197
     54          1           0        9.017406   16.484124   16.939941
     55          1           0        9.614853   16.559931   15.308732
     56          1           0       10.749552   14.959407   17.008620
     57          1           0       11.525705   16.398512   17.690619
     58          1           0       11.728764   15.700030   14.790095
     59          1           0       13.709868   16.935695   17.454530
     60          1           0       15.033327   15.866825   17.084393
     61          1           0       15.062844   15.246468   14.741222
     62          1           0       13.572038   14.669085   14.099978
 ---------------------------------------------------------------------

 SCF Done:  E(RB3LYP) =  -1447.51108659     A.U. after    1 cycles

 Alpha  occ. eigenvalues --  -19.35634 -19.29910 -19.29516 -19.25511 -19.24505
 Alpha  occ. eigenvalues --  -19.20712 -14.51688 -14.50666 -14.50294 -14.49215
 Alpha  occ. eigenvalues --  -14.45938 -14.41066 -10.48018 -10.47533 -10.43678
 Alpha  occ. eigenvalues --  -10.41137 -10.37982 -10.36029 -10.35080 -10.34651
 Alpha  occ. eigenvalues --  -10.33402 -10.32627 -10.31430 -10.31426 -10.30935
 Alpha  occ. eigenvalues --  -10.29341 -10.28857 -10.28710 -10.26378  -1.26120
 Alpha  occ. eigenvalues --   -1.21317  -1.17501  -1.16313  -1.15925  -1.12891
 Alpha  occ. eigenvalues --   -1.12749  -1.05504  -1.05000  -1.04068  -1.02459
 Alpha  occ. eigenvalues --   -0.98876  -0.92319  -0.91551  -0.91418  -0.87830
 Alpha  occ. eigenvalues --   -0.84841  -0.82622  -0.81005  -0.78835  -0.77809
 Alpha  occ. eigenvalues --   -0.77359  -0.75922  -0.74364  -0.74071  -0.72465
 Alpha  occ. eigenvalues --   -0.71610  -0.71308  -0.69535  -0.68030  -0.66934
 Alpha  occ. eigenvalues --   -0.66100  -0.65714  -0.64924  -0.63914  -0.62914
 Alpha  occ. eigenvalues --   -0.62300  -0.62123  -0.61093  -0.60124  -0.59695
 Alpha  occ. eigenvalues --   -0.59158  -0.58646  -0.57520  -0.57229  -0.56790
 Alpha  occ. eigenvalues --   -0.56213  -0.55047  -0.54464  -0.54226  -0.53785
 Alpha  occ. eigenvalues --   -0.52864  -0.52846  -0.52417  -0.52303  -0.51654
 Alpha  occ. eigenvalues --   -0.51056  -0.50549  -0.50053  -0.49766  -0.48982
 Alpha  occ. eigenvalues --   -0.48169  -0.47848  -0.47383  -0.47273  -0.47171
 Alpha  occ. eigenvalues --   -0.46380  -0.45843  -0.45811  -0.45178  -0.43588
 Alpha  occ. eigenvalues --   -0.43442  -0.43042  -0.42662  -0.42511  -0.42013
 Alpha  occ. eigenvalues --   -0.41067  -0.39919  -0.38871  -0.37225  -0.35424
 Alpha  occ. eigenvalues --   -0.34422  -0.33598
 Alpha virt. eigenvalues --   -0.15156  -0.12744  -0.12158  -0.10267  -0.08799
 Alpha virt. eigenvalues --   -0.06988  -0.06581  -0.03436  -0.03150  -0.02099
 Alpha virt. eigenvalues --   -0.01656  -0.01224  -0.00049   0.00209   0.00683

 Mulliken charges:
               1
     1  N   -0.708617
     2  C   -0.097319
     3  C    0.577402
     4  O   -0.484167
     5  C   -0.276159
     6  C   -0.378779
     7  C    0.631681
     8  O   -0.496136
     9  O   -0.567435
    10  H    0.444384
    11  H    0.151729
    12  H    0.163092
    13  H    0.189441
    14  H    0.244612
    15  H    0.163488
    16  H    0.316136
    17  H    0.329804
    18  N   -0.598543
    19  C   -0.079559
    20  C    0.653065
    21  O   -0.553869
    22  C   -0.270240
    23  C   -0.088832
    24  C   -0.467275
    25  C   -0.446777
    26  H    0.350242
    27  H    0.159597
    28  H    0.174178
    29  H    0.151767
    30  H    0.140542
    31  H    0.146249
    32  H    0.135953
    33  H    0.123223
    34  H    0.151142
    35  H    0.166203
    36  H    0.150729
    37  N   -0.638878
    38  C   -0.092366
    39  C    0.638296
    40  O   -0.499875
    41  C   -0.288165
    42  C   -0.323086
    43  C   -0.138262
    44  N   -0.642764
    45  C    0.769352
    46  N   -0.757562
    47  N   -0.765136
    48  O   -0.572770
    49  H    0.464741
    50  H    0.391906
    51  H    0.215853
    52  H    0.173750
    53  H    0.188505
    54  H    0.185686
    55  H    0.153629
    56  H    0.182696
    57  H    0.209866
    58  H    0.392162
    59  H    0.425864
    60  H    0.368421
    61  H    0.370331
    62  H    0.386849
 Sum of Mulliken charges =   1.00000

 Dipole moment (field-independent basis, Debye):
    X=             60.1213    Y=             74.8306    Z=             66.9107  Tot=            117.0095
 Quadrupole moment (field-independent basis, Debye-Ang):
   XX=            603.3069   YY=           1001.4369   ZZ=            788.2729
   XY=            936.1338   XZ=            831.6753   YZ=           1052.4421

 Normal termination of Gaussian 16 at Tue May 24 03:34:07 2022.
