 Gaussian 16, Revision C.01,
 Gaussian 16:  ES64L-G16RevC.01  3-Jul-2019

 ----------------------------------------------------------------------
 # B3LYP/6-31G* empiricaldispersion=gd3 guess=read geom=check nosymm in
 tegral(ultrafinegrid)
 ----------------------------------------------------------------------

 ------------------------------------------------------
 Candidate Structure: Conf:306 Charge calc in gas phase
 ------------------------------------------------------
 Structure from the checkpoint file:  "conf-306.chk"
 Charge =  1 Multiplicity = 1

                          Input orientation:
 ---------------------------------------------------------------------
 Center     Atomic      Atomic             Coordinates (Angstroms)
 Number     Number       Type             X           Y           Z
 ---------------------------------------------------------------------
      1          7           0        9.650539   16.555112   15.153643
      2          6           0       10.988889   16.179226   14.660216
      3          6           0       10.792727   15.237066   13.453595
      4          8           0        9.725566   14.649858   13.307225
      5          6           0       11.905906   15.524479   15.713020
      6          6           0       12.220146   16.460747   16.903900
      7          6           0       12.560691   17.857500   16.445757
      8          8           0       11.906513   18.855776   16.696487
      9          8           0       13.659668   17.904003   15.665887
     10          1           0       13.791074   18.835713   15.399184
     11          1           0       11.469313   17.091618   14.302242
     12          1           0       12.844021   15.227988   15.235743
     13          1           0       11.436516   14.609183   16.089925
     14          1           0       11.374878   16.549411   17.590906
     15          1           0       13.065263   16.054792   17.470439
     16          1           0        9.005498   15.827084   14.828274
     17          1           0        9.617664   16.552682   16.170891
     18          7           0       11.849185   15.054377   12.610655
     19          6           0       13.018402   15.928471   12.429577
     20          6           0       12.552758   17.148748   11.603231
     21          8           0       12.287876   17.049040   10.415059
     22          6           0       14.135390   15.171312   11.708149
     23          6           0       15.431447   15.986186   11.531040
     24          6           0       16.059371   16.389370   12.874909
     25          6           0       16.433120   15.185621   10.686771
     26          1           0       11.615747   14.475212   11.809113
     27          1           0       13.368563   16.240045   13.415357
     28          1           0       13.757352   14.879507   10.720533
     29          1           0       14.346794   14.252141   12.269593
     30          1           0       15.180477   16.901291   10.974621
     31          1           0       15.407244   17.037599   13.473847
     32          1           0       16.289004   15.501784   13.478460
     33          1           0       16.997093   16.932286   12.715337
     34          1           0       16.010187   14.921181    9.711299
     35          1           0       17.347853   15.762286   10.512590
     36          1           0       16.716490   14.255511   11.195519
     37          7           0       12.351396   18.278201   12.348667
     38          6           0       11.733740   19.507167   11.860919
     39          6           0       11.474036   20.461478   13.024438
     40          8           0       10.718139   21.403811   12.980420
     41          6           0       10.447708   19.268043   11.032508
     42          6           0        9.378862   18.327681   11.620411
     43          6           0        8.386272   18.937223   12.622035
     44          7           0        8.922241   19.056002   13.986333
     45          6           0        8.810140   20.117955   14.771964
     46          7           0        8.025406   21.178947   14.480484
     47          7           0        9.504179   20.174690   15.927726
     48          8           0       12.195080   20.154955   14.136640
     49          1           0       11.912411   20.749743   14.858068
     50          1           0       12.761340   18.309202   13.269580
     51          1           0       12.435802   20.041463   11.201220
     52          1           0       10.774375   18.842366   10.083845
     53          1           0       10.016276   20.252555   10.823533
     54          1           0        8.773257   17.970007   10.780135
     55          1           0        9.832603   17.428128   12.048819
     56          1           0        7.484370   18.316162   12.667649
     57          1           0        8.090426   19.925351   12.259422
     58          1           0        9.217393   18.151094   14.439983
     59          1           0        7.492355   21.177772   13.623754
     60          1           0        8.342830   22.092734   14.777006
     61          1           0        9.164370   20.765403   16.674195
     62          1           0       10.181128   19.459066   16.185181
 ---------------------------------------------------------------------

 SCF Done:  E(RB3LYP) =  -1447.51496642     A.U. after    1 cycles

 Alpha  occ. eigenvalues --  -19.33549 -19.33332 -19.28288 -19.27012 -19.22950
 Alpha  occ. eigenvalues --  -19.22308 -14.50953 -14.50412 -14.50048 -14.47744
 Alpha  occ. eigenvalues --  -14.46999 -14.45633 -10.47087 -10.46249 -10.45330
 Alpha  occ. eigenvalues --  -10.40089 -10.39481 -10.36218 -10.35433 -10.34973
 Alpha  occ. eigenvalues --  -10.34163 -10.32962 -10.32266 -10.30336 -10.29696
 Alpha  occ. eigenvalues --  -10.27812 -10.27636 -10.25998 -10.24719  -1.24567
 Alpha  occ. eigenvalues --   -1.23804  -1.15617  -1.15365  -1.15074  -1.14819
 Alpha  occ. eigenvalues --   -1.14316  -1.04906  -1.04385  -1.03691  -1.03335
 Alpha  occ. eigenvalues --   -1.02129  -0.92352  -0.91733  -0.90195  -0.87791
 Alpha  occ. eigenvalues --   -0.84836  -0.83355  -0.81649  -0.77875  -0.77336
 Alpha  occ. eigenvalues --   -0.76570  -0.75215  -0.74485  -0.72834  -0.72630
 Alpha  occ. eigenvalues --   -0.71050  -0.69771  -0.68578  -0.68284  -0.66561
 Alpha  occ. eigenvalues --   -0.65317  -0.64710  -0.64470  -0.64023  -0.62489
 Alpha  occ. eigenvalues --   -0.61732  -0.61382  -0.60915  -0.60712  -0.59802
 Alpha  occ. eigenvalues --   -0.59669  -0.58740  -0.58503  -0.57773  -0.56428
 Alpha  occ. eigenvalues --   -0.56156  -0.55135  -0.54724  -0.54347  -0.53643
 Alpha  occ. eigenvalues --   -0.53464  -0.52919  -0.52740  -0.52282  -0.51603
 Alpha  occ. eigenvalues --   -0.51032  -0.50673  -0.50075  -0.49529  -0.48357
 Alpha  occ. eigenvalues --   -0.47792  -0.47537  -0.46985  -0.46546  -0.46436
 Alpha  occ. eigenvalues --   -0.46135  -0.45843  -0.45583  -0.44914  -0.44695
 Alpha  occ. eigenvalues --   -0.42371  -0.41768  -0.41631  -0.41136  -0.40934
 Alpha  occ. eigenvalues --   -0.40599  -0.39906  -0.38932  -0.38327  -0.36745
 Alpha  occ. eigenvalues --   -0.36557  -0.34421
 Alpha virt. eigenvalues --   -0.13731  -0.12950  -0.11625  -0.09999  -0.08388
 Alpha virt. eigenvalues --   -0.07555  -0.06219  -0.04383  -0.03903  -0.02328
 Alpha virt. eigenvalues --   -0.01646  -0.00936  -0.00436  -0.00051   0.00594

 Mulliken charges:
               1
     1  N   -0.806231
     2  C   -0.060044
     3  C    0.603777
     4  O   -0.503681
     5  C   -0.298859
     6  C   -0.354680
     7  C    0.596208
     8  O   -0.496193
     9  O   -0.550862
    10  H    0.434180
    11  H    0.137778
    12  H    0.190448
    13  H    0.189706
    14  H    0.182588
    15  H    0.214320
    16  H    0.363679
    17  H    0.327149
    18  N   -0.591623
    19  C   -0.088325
    20  C    0.647077
    21  O   -0.508610
    22  C   -0.275509
    23  C   -0.089105
    24  C   -0.454056
    25  C   -0.446972
    26  H    0.356889
    27  H    0.157702
    28  H    0.170145
    29  H    0.153156
    30  H    0.141824
    31  H    0.118273
    32  H    0.151882
    33  H    0.163665
    34  H    0.158351
    35  H    0.157094
    36  H    0.149992
    37  N   -0.656463
    38  C   -0.024696
    39  C    0.621602
    40  O   -0.475496
    41  C   -0.295035
    42  C   -0.295431
    43  C   -0.163314
    44  N   -0.626399
    45  C    0.758990
    46  N   -0.737800
    47  N   -0.798265
    48  O   -0.612716
    49  H    0.431259
    50  H    0.355721
    51  H    0.212906
    52  H    0.212948
    53  H    0.169812
    54  H    0.183781
    55  H    0.170685
    56  H    0.192882
    57  H    0.162488
    58  H    0.439117
    59  H    0.377364
    60  H    0.376672
    61  H    0.370545
    62  H    0.407708
 Sum of Mulliken charges =   1.00000

 Dipole moment (field-independent basis, Debye):
    X=             51.8583    Y=             91.0779    Z=             71.5376  Tot=            126.8940
 Quadrupole moment (field-independent basis, Debye-Ang):
   XX=            425.6698   YY=           1580.7030   ZZ=            908.9685
   XY=            958.6030   XZ=            770.6304   YZ=           1352.5639

 Normal termination of Gaussian 16 at Tue May 24 03:34:06 2022.
