 Gaussian 16, Revision C.01,
 Gaussian 16:  ES64L-G16RevC.01  3-Jul-2019

 ----------------------------------------------------------------------
 # B3LYP/6-31G* empiricaldispersion=gd3 guess=read geom=check nosymm in
 tegral(ultrafinegrid)
 ----------------------------------------------------------------------

 ------------------------------------------------------
 Candidate Structure: Conf:472 Charge calc in gas phase
 ------------------------------------------------------
 Structure from the checkpoint file:  "conf-472.chk"
 Charge =  1 Multiplicity = 1

                          Input orientation:
 ---------------------------------------------------------------------
 Center     Atomic      Atomic             Coordinates (Angstroms)
 Number     Number       Type             X           Y           Z
 ---------------------------------------------------------------------
      1          7           0       10.892258   16.479116   11.143371
      2          6           0       11.897160   16.169299   12.166165
      3          6           0       13.118025   17.069318   11.896121
      4          8           0       13.376656   17.408615   10.746838
      5          6           0       12.393095   14.703598   12.224365
      6          6           0       11.259813   13.665887   12.432962
      7          6           0       10.312947   14.151609   13.513283
      8          8           0        9.365997   14.874961   13.272080
      9          8           0       10.611992   13.869284   14.793953
     10          1           0       11.360900   13.252177   14.859044
     11          1           0       11.446218   16.404536   13.135124
     12          1           0       13.120538   14.621375   13.041306
     13          1           0       12.925070   14.463327   11.297697
     14          1           0       10.673439   13.543972   11.518990
     15          1           0       11.695791   12.689646   12.671785
     16          1           0       11.374021   16.635991   10.256276
     17          1           0       10.235085   15.710817   11.034403
     18          7           0       13.917696   17.395621   12.951270
     19          6           0       13.608994   17.341805   14.385094
     20          6           0       13.102501   18.744755   14.801828
     21          8           0       13.762962   19.526670   15.456940
     22          6           0       14.817254   16.898720   15.211552
     23          6           0       14.458966   16.489793   16.654834
     24          6           0       13.623488   15.198366   16.696931
     25          6           0       15.740676   16.325324   17.482989
     26          1           0       14.727198   17.950419   12.687100
     27          1           0       12.798612   16.625044   14.525141
     28          1           0       15.542042   17.719994   15.230899
     29          1           0       15.289235   16.051939   14.696837
     30          1           0       13.871532   17.303833   17.101619
     31          1           0       14.187113   14.364225   16.256610
     32          1           0       13.385290   14.925552   17.730349
     33          1           0       12.667624   15.283963   16.162240
     34          1           0       15.507614   16.046904   18.516225
     35          1           0       16.380672   15.539752   17.061232
     36          1           0       16.318338   17.255585   17.506340
     37          7           0       11.829314   19.047259   14.332200
     38          6           0       11.383080   20.439089   14.229659
     39          6           0        9.896758   20.517821   14.588692
     40          8           0        9.151937   21.374263   14.154187
     41          6           0       11.695471   21.112409   12.879687
     42          6           0       11.288050   20.377036   11.586897
     43          6           0        9.801044   20.038919   11.399442
     44          7           0        9.427415   18.801087   12.123780
     45          6           0        8.216305   18.551486   12.650969
     46          7           0        7.350894   19.543671   12.932106
     47          7           0        7.850014   17.279529   12.873986
     48          8           0        9.439738   19.560844   15.410104
     49          1           0       10.188328   18.959593   15.606386
     50          1           0       11.462758   18.448913   13.601899
     51          1           0       11.924257   20.980576   15.015754
     52          1           0       12.778163   21.275638   12.844485
     53          1           0       11.224548   22.100026   12.901230
     54          1           0       11.571145   21.031919   10.754907
     55          1           0       11.886084   19.469150   11.441705
     56          1           0        9.594996   19.874707   10.335206
     57          1           0        9.179542   20.868826   11.732315
     58          1           0        9.929359   17.959676   11.760387
     59          1           0        7.735460   20.445582   13.216102
     60          1           0        6.492510   19.296451   13.406879
     61          1           0        7.079658   17.086409   13.498920
     62          1           0        8.489185   16.500277   12.739337
 ---------------------------------------------------------------------

 SCF Done:  E(RB3LYP) =  -1447.50636027     A.U. after    3 cycles

 Alpha  occ. eigenvalues --  -19.33335 -19.31490 -19.27642 -19.25885 -19.24796
 Alpha  occ. eigenvalues --  -19.24131 -14.50158 -14.49689 -14.49601 -14.49152
 Alpha  occ. eigenvalues --  -14.48806 -14.46328 -10.46712 -10.46094 -10.44179
 Alpha  occ. eigenvalues --  -10.41529 -10.41453 -10.36469 -10.35936 -10.35819
 Alpha  occ. eigenvalues --  -10.34623 -10.33930 -10.33501 -10.30389 -10.30212
 Alpha  occ. eigenvalues --  -10.28881 -10.28638 -10.27402 -10.25545  -1.23977
 Alpha  occ. eigenvalues --   -1.22533  -1.16789  -1.16144  -1.15659  -1.14964
 Alpha  occ. eigenvalues --   -1.14054  -1.06023  -1.04723  -1.04188  -1.03150
 Alpha  occ. eigenvalues --   -1.02919  -0.92857  -0.91840  -0.91113  -0.87426
 Alpha  occ. eigenvalues --   -0.85674  -0.84373  -0.80672  -0.77727  -0.77354
 Alpha  occ. eigenvalues --   -0.76664  -0.75815  -0.74932  -0.73598  -0.72397
 Alpha  occ. eigenvalues --   -0.71792  -0.70588  -0.70260  -0.68261  -0.67865
 Alpha  occ. eigenvalues --   -0.66613  -0.65293  -0.64872  -0.63767  -0.63172
 Alpha  occ. eigenvalues --   -0.62286  -0.61398  -0.60666  -0.60460  -0.59650
 Alpha  occ. eigenvalues --   -0.59083  -0.58235  -0.57957  -0.57322  -0.57087
 Alpha  occ. eigenvalues --   -0.56673  -0.55876  -0.55338  -0.54942  -0.54358
 Alpha  occ. eigenvalues --   -0.53784  -0.53344  -0.52922  -0.52567  -0.51959
 Alpha  occ. eigenvalues --   -0.51812  -0.51309  -0.50779  -0.50418  -0.49387
 Alpha  occ. eigenvalues --   -0.49010  -0.48415  -0.48315  -0.47225  -0.46629
 Alpha  occ. eigenvalues --   -0.46194  -0.45836  -0.45463  -0.45261  -0.43771
 Alpha  occ. eigenvalues --   -0.42958  -0.42206  -0.41964  -0.41728  -0.41356
 Alpha  occ. eigenvalues --   -0.40777  -0.40187  -0.39766  -0.39078  -0.38134
 Alpha  occ. eigenvalues --   -0.37644  -0.36180
 Alpha virt. eigenvalues --   -0.13700  -0.12666  -0.11828  -0.11522  -0.09399
 Alpha virt. eigenvalues --   -0.08174  -0.06133  -0.04940  -0.03644  -0.02713
 Alpha virt. eigenvalues --   -0.01861  -0.01749  -0.00904  -0.00158   0.00321

 Mulliken charges:
               1
     1  N   -0.788035
     2  C   -0.077374
     3  C    0.610289
     4  O   -0.506286
     5  C   -0.293719
     6  C   -0.390375
     7  C    0.607847
     8  O   -0.478076
     9  O   -0.534804
    10  H    0.434741
    11  H    0.141142
    12  H    0.169778
    13  H    0.200681
    14  H    0.197570
    15  H    0.186185
    16  H    0.357532
    17  H    0.335495
    18  N   -0.593906
    19  C   -0.100784
    20  C    0.633981
    21  O   -0.467023
    22  C   -0.264219
    23  C   -0.084798
    24  C   -0.470456
    25  C   -0.449195
    26  H    0.356587
    27  H    0.164287
    28  H    0.175033
    29  H    0.147658
    30  H    0.147552
    31  H    0.141342
    32  H    0.172613
    33  H    0.124752
    34  H    0.159618
    35  H    0.148465
    36  H    0.164109
    37  N   -0.689554
    38  C   -0.086981
    39  C    0.641754
    40  O   -0.492734
    41  C   -0.277165
    42  C   -0.320576
    43  C   -0.159297
    44  N   -0.675833
    45  C    0.761844
    46  N   -0.745477
    47  N   -0.784684
    48  O   -0.567980
    49  H    0.434511
    50  H    0.361604
    51  H    0.238189
    52  H    0.174333
    53  H    0.191221
    54  H    0.185115
    55  H    0.165458
    56  H    0.186546
    57  H    0.197348
    58  H    0.426226
    59  H    0.411028
    60  H    0.364060
    61  H    0.367916
    62  H    0.414916
 Sum of Mulliken charges =   1.00000

 Dipole moment (field-independent basis, Debye):
    X=             51.0316    Y=             79.4572    Z=             63.3027  Tot=            113.6877
 Quadrupole moment (field-independent basis, Debye-Ang):
   XX=            402.8334   YY=           1177.1755   ZZ=            670.4329
   XY=            828.6332   XZ=            682.1524   YZ=           1039.9613

 Normal termination of Gaussian 16 at Tue May 24 03:34:17 2022.
