 Gaussian 16, Revision C.01,
 Gaussian 16:  ES64L-G16RevC.01  3-Jul-2019

 ----------------------------------------------------------------------
 # B3LYP/6-31G* empiricaldispersion=gd3 guess=read geom=check nosymm in
 tegral(ultrafinegrid)
 ----------------------------------------------------------------------

 ------------------------------------------------------
 Candidate Structure: Conf:446 Charge calc in gas phase
 ------------------------------------------------------
 Structure from the checkpoint file:  "conf-446.chk"
 Charge =  1 Multiplicity = 1

                          Input orientation:
 ---------------------------------------------------------------------
 Center     Atomic      Atomic             Coordinates (Angstroms)
 Number     Number       Type             X           Y           Z
 ---------------------------------------------------------------------
      1          7           0       11.239945   19.031097   11.606707
      2          6           0       10.730014   17.713223   12.010997
      3          6           0       11.871534   16.709174   11.754489
      4          8           0       12.632979   16.901013   10.810886
      5          6           0        9.480148   17.209639   11.248686
      6          6           0        8.307475   18.216002   11.181879
      7          6           0        7.945526   18.785042   12.534080
      8          8           0        8.652767   19.554225   13.171976
      9          8           0        6.770603   18.343440   12.991118
     10          1           0        6.601790   18.756440   13.860755
     11          1           0       10.475487   17.776179   13.073342
     12          1           0        9.137376   16.280885   11.719988
     13          1           0        9.766153   16.959635   10.221071
     14          1           0        8.574565   19.061939   10.538877
     15          1           0        7.437112   17.728775   10.737431
     16          1           0       11.799899   18.907012   10.760750
     17          1           0       10.473331   19.666643   11.402876
     18          7           0       11.961240   15.595838   12.532699
     19          6           0       11.370559   15.310155   13.844370
     20          6           0       12.415451   15.715182   14.916715
     21          8           0       13.003620   14.913638   15.614190
     22          6           0       10.953661   13.844696   14.001884
     23          6           0        9.727213   13.404306   13.174910
     24          6           0       10.029701   13.223654   11.678273
     25          6           0        9.162694   12.098712   13.757232
     26          1           0       12.702147   14.966299   12.236804
     27          1           0       10.485349   15.942649   13.964280
     28          1           0       10.745796   13.697098   15.067417
     29          1           0       11.814408   13.199190   13.783619
     30          1           0        8.951673   14.181662   13.281247
     31          1           0        9.138479   12.872101   11.146954
     32          1           0       10.363506   14.147983   11.199082
     33          1           0       10.815335   12.471084   11.534506
     34          1           0        8.279752   11.770083   13.198709
     35          1           0        9.908781   11.296334   13.701763
     36          1           0        8.874588   12.216347   14.808013
     37          7           0       12.634333   17.087236   15.004715
     38          6           0       13.854819   17.608428   15.626261
     39          6           0       13.509279   18.857274   16.442731
     40          8           0       14.301939   19.751413   16.664005
     41          6           0       15.019779   17.850999   14.648077
     42          6           0       14.742269   18.677328   13.376237
     43          6           0       14.213283   20.107648   13.565111
     44          7           0       12.751851   20.112835   13.802342
     45          6           0       12.084679   21.015540   14.536713
     46          7           0       12.704604   21.778989   15.456396
     47          7           0       10.767295   21.178462   14.325936
     48          8           0       12.248602   18.926004   16.897940
     49          1           0       11.780562   18.129676   16.569486
     50          1           0       12.298872   17.649120   14.232127
     51          1           0       14.167016   16.841846   16.346827
     52          1           0       15.388436   16.867891   14.335618
     53          1           0       15.822005   18.324833   15.222239
     54          1           0       15.696066   18.758247   12.842541
     55          1           0       14.081829   18.135216   12.687491
     56          1           0       14.404809   20.692351   12.657562
     57          1           0       14.729713   20.596849   14.389797
     58          1           0       12.209387   19.725106   12.994286
     59          1           0       13.506114   21.375967   15.943382
     60          1           0       12.129843   22.375022   16.037445
     61          1           0       10.205955   21.653650   15.018224
     62          1           0       10.246412   20.596381   13.674924
 ---------------------------------------------------------------------

 SCF Done:  E(RB3LYP) =  -1447.51146991     A.U. after    2 cycles

 Alpha  occ. eigenvalues --  -19.33048 -19.31498 -19.27998 -19.25897 -19.24672
 Alpha  occ. eigenvalues --  -19.23879 -14.50423 -14.49733 -14.49596 -14.49070
 Alpha  occ. eigenvalues --  -14.48660 -14.46255 -10.46813 -10.46009 -10.44167
 Alpha  occ. eigenvalues --  -10.41346 -10.41322 -10.36116 -10.36055 -10.35779
 Alpha  occ. eigenvalues --  -10.34646 -10.32963 -10.32624 -10.30416 -10.30216
 Alpha  occ. eigenvalues --  -10.28750 -10.28593 -10.25993 -10.25461  -1.24224
 Alpha  occ. eigenvalues --   -1.22542  -1.16677  -1.15977  -1.15198  -1.14980
 Alpha  occ. eigenvalues --   -1.14074  -1.05919  -1.04638  -1.04161  -1.03291
 Alpha  occ. eigenvalues --   -1.02788  -0.92286  -0.91654  -0.90798  -0.87464
 Alpha  occ. eigenvalues --   -0.85692  -0.84523  -0.80671  -0.78084  -0.76785
 Alpha  occ. eigenvalues --   -0.76696  -0.75695  -0.73600  -0.72578  -0.72317
 Alpha  occ. eigenvalues --   -0.71702  -0.70627  -0.69903  -0.68386  -0.67436
 Alpha  occ. eigenvalues --   -0.66600  -0.65540  -0.64958  -0.63084  -0.62178
 Alpha  occ. eigenvalues --   -0.61678  -0.61224  -0.61045  -0.60546  -0.60074
 Alpha  occ. eigenvalues --   -0.59035  -0.58344  -0.57778  -0.57160  -0.56787
 Alpha  occ. eigenvalues --   -0.56281  -0.55448  -0.55131  -0.54367  -0.54175
 Alpha  occ. eigenvalues --   -0.53640  -0.53319  -0.52789  -0.52517  -0.52022
 Alpha  occ. eigenvalues --   -0.51680  -0.50867  -0.50646  -0.50348  -0.49565
 Alpha  occ. eigenvalues --   -0.48577  -0.48232  -0.47289  -0.46681  -0.46626
 Alpha  occ. eigenvalues --   -0.46173  -0.45560  -0.45368  -0.45174  -0.43794
 Alpha  occ. eigenvalues --   -0.42436  -0.41993  -0.41806  -0.41714  -0.41635
 Alpha  occ. eigenvalues --   -0.40806  -0.40206  -0.39714  -0.39020  -0.38037
 Alpha  occ. eigenvalues --   -0.37525  -0.35749
 Alpha virt. eigenvalues --   -0.13386  -0.12550  -0.11837  -0.11540  -0.09079
 Alpha virt. eigenvalues --   -0.06783  -0.05128  -0.04523  -0.03497  -0.02707
 Alpha virt. eigenvalues --   -0.02658  -0.01626  -0.01227   0.00097   0.00898

 Mulliken charges:
               1
     1  N   -0.794697
     2  C   -0.058918
     3  C    0.602866
     4  O   -0.510077
     5  C   -0.304153
     6  C   -0.365286
     7  C    0.594574
     8  O   -0.502279
     9  O   -0.526780
    10  H    0.427412
    11  H    0.135614
    12  H    0.184313
    13  H    0.196104
    14  H    0.188284
    15  H    0.211113
    16  H    0.358370
    17  H    0.332882
    18  N   -0.583968
    19  C   -0.103655
    20  C    0.625689
    21  O   -0.459955
    22  C   -0.260977
    23  C   -0.084488
    24  C   -0.455587
    25  C   -0.446771
    26  H    0.356129
    27  H    0.164287
    28  H    0.170982
    29  H    0.162369
    30  H    0.112387
    31  H    0.159741
    32  H    0.142878
    33  H    0.154540
    34  H    0.158429
    35  H    0.158348
    36  H    0.150513
    37  N   -0.691842
    38  C   -0.087045
    39  C    0.642676
    40  O   -0.493084
    41  C   -0.276732
    42  C   -0.320838
    43  C   -0.158979
    44  N   -0.674451
    45  C    0.764616
    46  N   -0.744989
    47  N   -0.792249
    48  O   -0.570768
    49  H    0.432683
    50  H    0.360546
    51  H    0.238721
    52  H    0.174504
    53  H    0.191012
    54  H    0.185035
    55  H    0.166171
    56  H    0.186070
    57  H    0.197365
    58  H    0.428639
    59  H    0.410320
    60  H    0.362857
    61  H    0.364807
    62  H    0.414721
 Sum of Mulliken charges =   1.00000

 Dipole moment (field-independent basis, Debye):
    X=             50.5479    Y=             90.8405    Z=             65.3438  Tot=            122.7881
 Quadrupole moment (field-independent basis, Debye-Ang):
   XX=            388.2976   YY=           1580.8528   ZZ=            725.1984
   XY=            962.2063   XZ=            690.4436   YZ=           1246.2553

 Normal termination of Gaussian 16 at Tue May 24 03:34:18 2022.
