 Gaussian 16, Revision C.01,
 Gaussian 16:  ES64L-G16RevC.01  3-Jul-2019

 ----------------------------------------------------------------------
 # B3LYP/6-31G* empiricaldispersion=gd3 guess=read geom=check nosymm in
 tegral(ultrafinegrid)
 ----------------------------------------------------------------------

 ------------------------------------------------------
 Candidate Structure: Conf:367 Charge calc in gas phase
 ------------------------------------------------------
 Structure from the checkpoint file:  "conf-367.chk"
 Charge =  1 Multiplicity = 1

                          Input orientation:
 ---------------------------------------------------------------------
 Center     Atomic      Atomic             Coordinates (Angstroms)
 Number     Number       Type             X           Y           Z
 ---------------------------------------------------------------------
      1          7           0        8.433442   16.719921   15.949473
      2          6           0        9.148049   16.262662   14.761339
      3          6           0        8.195552   15.937672   13.585864
      4          8           0        7.010069   15.726696   13.795246
      5          6           0        9.968034   15.003858   15.128688
      6          6           0       10.996300   15.274886   16.231624
      7          6           0       12.160268   16.124214   15.790476
      8          8           0       12.238397   16.737988   14.735151
      9          8           0       13.199661   16.254808   16.642867
     10          1           0       13.058989   15.750012   17.464252
     11          1           0        9.831969   17.060499   14.458807
     12          1           0       10.459687   14.577317   14.248995
     13          1           0        9.268180   14.243662   15.493762
     14          1           0       10.491260   15.817427   17.045602
     15          1           0       11.384619   14.339009   16.654529
     16          1           0        8.065211   17.655328   15.781649
     17          1           0        7.600652   16.135414   16.048659
     18          7           0        8.736401   15.856245   12.328245
     19          6           0       10.092569   16.191191   11.920868
     20          6           0       10.230667   17.683598   11.581233
     21          8           0        9.538975   18.235523   10.745733
     22          6           0       10.493462   15.366900   10.682122
     23          6           0       11.920816   15.624279   10.160447
     24          6           0       13.001477   15.302946   11.207445
     25          6           0       12.159966   14.813344    8.878714
     26          1           0        8.049588   15.737899   11.590720
     27          1           0       10.768998   15.943200   12.738416
     28          1           0        9.776674   15.593927    9.883144
     29          1           0       10.378381   14.305148   10.935434
     30          1           0       11.995224   16.689735    9.889806
     31          1           0       12.910256   15.904401   12.120961
     32          1           0       12.944231   14.248544   11.505600
     33          1           0       14.002526   15.473309   10.794647
     34          1           0       11.418813   15.057577    8.110205
     35          1           0       13.154030   15.014790    8.464996
     36          1           0       12.093321   13.737319    9.081756
     37          7           0       11.277679   18.318098   12.233075
     38          6           0       11.558377   19.730657   12.009296
     39          6           0       13.062290   19.931281   11.795350
     40          8           0       13.627082   20.989400   12.003335
     41          6           0       10.979989   20.687407   13.066746
     42          6           0       11.338422   20.424954   14.539616
     43          6           0       12.820785   20.538566   14.928835
     44          7           0       13.543422   19.287876   14.621268
     45          6           0       14.853947   19.143446   14.390893
     46          7           0       15.575850   20.136186   13.853804
     47          7           0       15.437066   17.978835   14.727479
     48          8           0       13.747990   18.862019   11.366856
     49          1           0       13.119631   18.114523   11.282741
     50          1           0       11.622735   17.884265   13.081954
     51          1           0       11.075764   19.969469   11.052092
     52          1           0        9.890086   20.644227   12.968682
     53          1           0       11.287450   21.701627   12.793071
     54          1           0       10.793381   21.161739   15.139970
     55          1           0       10.953726   19.446171   14.862232
     56          1           0       12.909469   20.721320   16.006595
     57          1           0       13.291703   21.368939   14.404143
     58          1           0       13.065072   18.422296   14.870164
     59          1           0       15.109927   20.737941   13.168014
     60          1           0       16.573431   20.014022   13.745612
     61          1           0       16.295097   17.681567   14.284816
     62          1           0       14.929786   17.296250   15.278537
 ---------------------------------------------------------------------

 SCF Done:  E(RB3LYP) =  -1447.50724091     A.U. after    2 cycles

 Alpha  occ. eigenvalues --  -19.35511 -19.31593 -19.30161 -19.26102 -19.23087
 Alpha  occ. eigenvalues --  -19.20378 -14.52096 -14.51162 -14.50640 -14.48227
 Alpha  occ. eigenvalues --  -14.45288 -14.41223 -10.48065 -10.47923 -10.44376
 Alpha  occ. eigenvalues --  -10.39834 -10.37570 -10.35623 -10.35601 -10.33919
 Alpha  occ. eigenvalues --  -10.33341 -10.32615 -10.31534 -10.30864 -10.30488
 Alpha  occ. eigenvalues --  -10.29283 -10.28710 -10.27868 -10.25973  -1.26149
 Alpha  occ. eigenvalues --   -1.22658  -1.17572  -1.16345  -1.15176  -1.14185
 Alpha  occ. eigenvalues --   -1.12397  -1.05657  -1.04533  -1.04434  -1.01952
 Alpha  occ. eigenvalues --   -0.98916  -0.92287  -0.91556  -0.91078  -0.87640
 Alpha  occ. eigenvalues --   -0.84371  -0.82656  -0.81170  -0.78154  -0.77866
 Alpha  occ. eigenvalues --   -0.77522  -0.75228  -0.74479  -0.73930  -0.73139
 Alpha  occ. eigenvalues --   -0.71766  -0.71081  -0.69530  -0.68222  -0.66718
 Alpha  occ. eigenvalues --   -0.66062  -0.65503  -0.65129  -0.63889  -0.62275
 Alpha  occ. eigenvalues --   -0.62021  -0.61548  -0.60940  -0.60150  -0.59856
 Alpha  occ. eigenvalues --   -0.59300  -0.58899  -0.57352  -0.57131  -0.56407
 Alpha  occ. eigenvalues --   -0.55916  -0.55168  -0.55053  -0.53853  -0.53527
 Alpha  occ. eigenvalues --   -0.52999  -0.52760  -0.52522  -0.51919  -0.51415
 Alpha  occ. eigenvalues --   -0.50977  -0.50638  -0.49902  -0.49061  -0.48432
 Alpha  occ. eigenvalues --   -0.48065  -0.47702  -0.47198  -0.46994  -0.46891
 Alpha  occ. eigenvalues --   -0.46325  -0.46043  -0.45689  -0.44781  -0.44003
 Alpha  occ. eigenvalues --   -0.43293  -0.42957  -0.42815  -0.42422  -0.42356
 Alpha  occ. eigenvalues --   -0.40740  -0.40304  -0.37709  -0.37270  -0.35341
 Alpha  occ. eigenvalues --   -0.34120  -0.33338
 Alpha virt. eigenvalues --   -0.15118  -0.13240  -0.11678  -0.09542  -0.08546
 Alpha virt. eigenvalues --   -0.07154  -0.06413  -0.05143  -0.03463  -0.02345
 Alpha virt. eigenvalues --   -0.01792  -0.00805  -0.00699   0.00138   0.00482

 Mulliken charges:
               1
     1  N   -0.714020
     2  C   -0.097729
     3  C    0.583488
     4  O   -0.487824
     5  C   -0.265619
     6  C   -0.403468
     7  C    0.636075
     8  O   -0.501894
     9  O   -0.574458
    10  H    0.447474
    11  H    0.137991
    12  H    0.167553
    13  H    0.182829
    14  H    0.239530
    15  H    0.189450
    16  H    0.314339
    17  H    0.330803
    18  N   -0.593560
    19  C   -0.079761
    20  C    0.629358
    21  O   -0.487920
    22  C   -0.275392
    23  C   -0.102915
    24  C   -0.471345
    25  C   -0.446113
    26  H    0.350875
    27  H    0.158759
    28  H    0.172369
    29  H    0.159397
    30  H    0.130877
    31  H    0.121294
    32  H    0.158887
    33  H    0.159410
    34  H    0.164527
    35  H    0.156121
    36  H    0.154616
    37  N   -0.713273
    38  C   -0.079941
    39  C    0.641066
    40  O   -0.501808
    41  C   -0.270358
    42  C   -0.315446
    43  C   -0.145150
    44  N   -0.652012
    45  C    0.776922
    46  N   -0.747853
    47  N   -0.770009
    48  O   -0.587228
    49  H    0.458796
    50  H    0.388756
    51  H    0.239446
    52  H    0.180509
    53  H    0.188469
    54  H    0.186215
    55  H    0.145021
    56  H    0.185300
    57  H    0.206389
    58  H    0.392613
    59  H    0.419261
    60  H    0.367892
    61  H    0.374279
    62  H    0.388140
 Sum of Mulliken charges =   1.00000

 Dipole moment (field-independent basis, Debye):
    X=             66.3648    Y=             83.5564    Z=             71.2324  Tot=            128.2966
 Quadrupole moment (field-independent basis, Debye-Ang):
   XX=            750.7841   YY=           1309.7156   ZZ=            905.7651
   XY=           1158.3185   XZ=            978.1025   YZ=           1240.5235

 Normal termination of Gaussian 16 at Tue May 24 03:34:21 2022.
