 Gaussian 16, Revision C.01,
 Gaussian 16:  ES64L-G16RevC.01  3-Jul-2019

 ----------------------------------------------------------------------
 # B3LYP/6-31G* empiricaldispersion=gd3 guess=read geom=check nosymm in
 tegral(ultrafinegrid)
 ----------------------------------------------------------------------

 ------------------------------------------------------
 Candidate Structure: Conf:239 Charge calc in gas phase
 ------------------------------------------------------
 Structure from the checkpoint file:  "conf-239.chk"
 Charge =  1 Multiplicity = 1

                          Input orientation:
 ---------------------------------------------------------------------
 Center     Atomic      Atomic             Coordinates (Angstroms)
 Number     Number       Type             X           Y           Z
 ---------------------------------------------------------------------
      1          7           0       13.206807   18.422824   11.066200
      2          6           0       12.746157   17.051576   11.340952
      3          6           0       13.889321   16.204249   11.930165
      4          8           0       14.745985   15.721328   11.202866
      5          6           0       12.215401   16.422890   10.048023
      6          6           0       11.366109   15.168759   10.296552
      7          6           0       10.044252   15.512368   10.959318
      8          8           0        9.377896   16.488986   10.665133
      9          8           0        9.585502   14.691971   11.929722
     10          1           0       10.178292   13.930534   12.051722
     11          1           0       11.919901   17.125129   12.057002
     12          1           0       13.067818   16.156967    9.416489
     13          1           0       11.609766   17.167154    9.523274
     14          1           0       11.123411   14.689513    9.339263
     15          1           0       11.925542   14.432301   10.886683
     16          1           0       13.747870   18.761735   11.863599
     17          1           0       13.858248   18.392176   10.280894
     18          7           0       13.950087   16.042424   13.296063
     19          6           0       13.099285   16.598909   14.327365
     20          6           0       13.318272   18.123523   14.514213
     21          8           0       14.201139   18.748037   13.939172
     22          6           0       13.298668   15.818588   15.643435
     23          6           0       12.977263   14.313306   15.551148
     24          6           0       13.246611   13.643354   16.906124
     25          6           0       11.533669   14.056989   15.094062
     26          1           0       14.833691   15.646097   13.598894
     27          1           0       12.052813   16.475984   14.021820
     28          1           0       12.669418   16.267000   16.423506
     29          1           0       14.336368   15.957721   15.975881
     30          1           0       13.650100   13.864940   14.808334
     31          1           0       14.280254   13.803679   17.232477
     32          1           0       12.583112   14.045597   17.682443
     33          1           0       13.077017   12.562939   16.849551
     34          1           0       11.343259   14.440378   14.083635
     35          1           0       11.316483   12.983410   15.087864
     36          1           0       10.814657   14.534479   15.773546
     37          7           0       12.389244   18.726917   15.309672
     38          6           0       12.283674   20.175167   15.472192
     39          6           0       11.137650   20.433611   16.431676
     40          8           0       10.144523   19.722467   16.512027
     41          6           0       12.003039   20.975928   14.159280
     42          6           0       10.644487   20.722441   13.476747
     43          6           0       10.593720   19.331162   12.830354
     44          7           0        9.263013   18.872763   12.410888
     45          6           0        8.448282   18.160170   13.197630
     46          7           0        8.562300   18.212921   14.532671
     47          7           0        7.509212   17.388451   12.618717
     48          8           0       11.293622   21.561015   17.119435
     49          1           0       10.494555   21.708711   17.663294
     50          1           0       11.663640   18.171416   15.744428
     51          1           0       13.213377   20.561951   15.899437
     52          1           0       12.823990   20.753057   13.472458
     53          1           0       12.083357   22.036546   14.419759
     54          1           0        9.821821   20.849535   14.190762
     55          1           0       10.490120   21.484860   12.705416
     56          1           0       10.974888   18.588567   13.528069
     57          1           0       11.244937   19.306960   11.950793
     58          1           0        9.108517   18.757864   11.416656
     59          1           0        9.124787   18.900095   15.032082
     60          1           0        8.001065   17.601381   15.107434
     61          1           0        6.839523   16.899679   13.196228
     62          1           0        7.789477   16.928139   11.749746
 ---------------------------------------------------------------------

 SCF Done:  E(RB3LYP) =  -1447.50178038     A.U. after    2 cycles

 Alpha  occ. eigenvalues --  -19.33384 -19.32743 -19.28393 -19.27026 -19.23481
 Alpha  occ. eigenvalues --  -19.20451 -14.51409 -14.50979 -14.50057 -14.48329
 Alpha  occ. eigenvalues --  -14.45722 -14.41474 -10.47316 -10.46199 -10.45187
 Alpha  occ. eigenvalues --  -10.40415 -10.37802 -10.36557 -10.35121 -10.34343
 Alpha  occ. eigenvalues --  -10.32416 -10.31937 -10.30987 -10.30900 -10.30155
 Alpha  occ. eigenvalues --  -10.29344 -10.29085 -10.28199 -10.26430  -1.24686
 Alpha  occ. eigenvalues --   -1.23230  -1.16002  -1.15766  -1.15335  -1.14724
 Alpha  occ. eigenvalues --   -1.12556  -1.05258  -1.04833  -1.03841  -1.02422
 Alpha  occ. eigenvalues --   -0.98734  -0.92693  -0.91322  -0.90316  -0.88287
 Alpha  occ. eigenvalues --   -0.84806  -0.81607  -0.80995  -0.78583  -0.78020
 Alpha  occ. eigenvalues --   -0.76673  -0.75451  -0.74684  -0.73420  -0.72972
 Alpha  occ. eigenvalues --   -0.72565  -0.69772  -0.69042  -0.67412  -0.66558
 Alpha  occ. eigenvalues --   -0.65563  -0.64880  -0.64506  -0.63095  -0.62682
 Alpha  occ. eigenvalues --   -0.61503  -0.61297  -0.60246  -0.59696  -0.59329
 Alpha  occ. eigenvalues --   -0.58928  -0.58028  -0.57638  -0.57108  -0.56739
 Alpha  occ. eigenvalues --   -0.56563  -0.55965  -0.54725  -0.54330  -0.54063
 Alpha  occ. eigenvalues --   -0.53621  -0.52780  -0.52702  -0.51742  -0.50986
 Alpha  occ. eigenvalues --   -0.50480  -0.50156  -0.49456  -0.49135  -0.48477
 Alpha  occ. eigenvalues --   -0.48001  -0.47727  -0.47324  -0.46785  -0.46518
 Alpha  occ. eigenvalues --   -0.46210  -0.45560  -0.45237  -0.44816  -0.44253
 Alpha  occ. eigenvalues --   -0.43293  -0.42852  -0.42713  -0.42666  -0.41902
 Alpha  occ. eigenvalues --   -0.40670  -0.39990  -0.37624  -0.37067  -0.36398
 Alpha  occ. eigenvalues --   -0.34816  -0.32505
 Alpha virt. eigenvalues --   -0.13313  -0.12428  -0.11984  -0.10131  -0.08226
 Alpha virt. eigenvalues --   -0.07230  -0.06524  -0.04909  -0.04145  -0.02760
 Alpha virt. eigenvalues --   -0.02484  -0.01380  -0.00859  -0.00473   0.01076

 Mulliken charges:
               1
     1  N   -0.754636
     2  C   -0.060678
     3  C    0.595023
     4  O   -0.498701
     5  C   -0.275625
     6  C   -0.391429
     7  C    0.616331
     8  O   -0.491945
     9  O   -0.563992
    10  H    0.435650
    11  H    0.111047
    12  H    0.194915
    13  H    0.176384
    14  H    0.218680
    15  H    0.168193
    16  H    0.352529
    17  H    0.327122
    18  N   -0.597697
    19  C   -0.073360
    20  C    0.624993
    21  O   -0.510814
    22  C   -0.295255
    23  C   -0.067231
    24  C   -0.448050
    25  C   -0.459693
    26  H    0.345959
    27  H    0.152521
    28  H    0.140533
    29  H    0.168072
    30  H    0.147318
    31  H    0.159988
    32  H    0.146372
    33  H    0.162983
    34  H    0.113979
    35  H    0.166993
    36  H    0.138606
    37  N   -0.632187
    38  C    0.009079
    39  C    0.590330
    40  O   -0.505079
    41  C   -0.312149
    42  C   -0.287731
    43  C   -0.205297
    44  N   -0.572886
    45  C    0.775072
    46  N   -0.794018
    47  N   -0.761394
    48  O   -0.533678
    49  H    0.437133
    50  H    0.343256
    51  H    0.215300
    52  H    0.208287
    53  H    0.185062
    54  H    0.146268
    55  H    0.181149
    56  H    0.153244
    57  H    0.243085
    58  H    0.381930
    59  H    0.427548
    60  H    0.368885
    61  H    0.361690
    62  H    0.402016
 Sum of Mulliken charges =   1.00000

 Dipole moment (field-independent basis, Debye):
    X=             46.7669    Y=             84.0480    Z=             68.8817  Tot=            118.3043
 Quadrupole moment (field-independent basis, Debye-Ang):
   XX=            289.3569   YY=           1341.5515   ZZ=            843.5773
   XY=            817.2451   XZ=            681.0226   YZ=           1218.9666

 Normal termination of Gaussian 16 at Tue May 24 03:34:21 2022.
