 Gaussian 16, Revision C.01,
 Gaussian 16:  ES64L-G16RevC.01  3-Jul-2019

 ----------------------------------------------------------------------
 # B3LYP/6-31G* empiricaldispersion=gd3 guess=read geom=check nosymm in
 tegral(ultrafinegrid)
 ----------------------------------------------------------------------

 ------------------------------------------------------
 Candidate Structure: Conf:586 Charge calc in gas phase
 ------------------------------------------------------
 Structure from the checkpoint file:  "conf-586.chk"
 Charge =  1 Multiplicity = 1

                          Input orientation:
 ---------------------------------------------------------------------
 Center     Atomic      Atomic             Coordinates (Angstroms)
 Number     Number       Type             X           Y           Z
 ---------------------------------------------------------------------
      1          7           0       12.321124   18.185326   11.166709
      2          6           0       11.071915   18.296553   11.935207
      3          6           0       10.366358   16.931309   11.855608
      4          8           0       10.520753   16.232669   10.859191
      5          6           0       10.089266   19.377284   11.433873
      6          6           0       10.668552   20.813100   11.452264
      7          6           0       11.217269   21.153745   12.815064
      8          8           0       12.318282   20.813737   13.227745
      9          8           0       10.339694   21.816036   13.577500
     10          1           0       10.746366   21.973428   14.452058
     11          1           0       11.340009   18.529157   12.967577
     12          1           0        9.185812   19.345207   12.052352
     13          1           0        9.786888   19.136589   10.408655
     14          1           0       11.486569   20.913768   10.732027
     15          1           0        9.885936   21.522758   11.174308
     16          1           0       12.150937   17.514464   10.412214
     17          1           0       12.571185   19.073452   10.738136
     18          7           0        9.500760   16.599720   12.858677
     19          6           0        9.626768   16.965445   14.281683
     20          6           0       10.649836   15.979713   14.878720
     21          8           0       10.336011   14.844183   15.205556
     22          6           0        8.273246   16.875874   14.988658
     23          6           0        7.216671   17.868300   14.469178
     24          6           0        5.844116   17.528929   15.067884
     25          6           0        7.588589   19.327491   14.779367
     26          1           0        9.080439   15.684714   12.709641
     27          1           0       10.000812   17.989325   14.342463
     28          1           0        8.439908   17.041527   16.061438
     29          1           0        7.913823   15.843796   14.898933
     30          1           0        7.151561   17.752082   13.377781
     31          1           0        5.862319   17.617111   16.161528
     32          1           0        5.071968   18.208587   14.691400
     33          1           0        5.542551   16.505190   14.819625
     34          1           0        6.819690   20.011851   14.404965
     35          1           0        7.671021   19.483208   15.862917
     36          1           0        8.539652   19.636035   14.326479
     37          7           0       11.945191   16.416321   14.882785
     38          6           0       13.025849   15.521771   15.277186
     39          6           0       14.240532   16.303663   15.746220
     40          8           0       15.387650   15.907388   15.675605
     41          6           0       13.369909   14.458594   14.214506
     42          6           0       13.618531   14.943715   12.778334
     43          6           0       14.794327   15.907445   12.571089
     44          7           0       14.409843   17.299145   12.894938
     45          6           0       15.241355   18.253652   13.314480
     46          7           0       16.432978   17.957484   13.872927
     47          7           0       14.897542   19.546592   13.158776
     48          8           0       13.920186   17.494352   16.299905
     49          1           0       14.744512   17.870717   16.662743
     50          1           0       12.157730   17.388303   14.716041
     51          1           0       12.679792   14.975749   16.168315
     52          1           0       12.525439   13.763942   14.195361
     53          1           0       14.240381   13.902159   14.577566
     54          1           0       13.823520   14.054658   12.171069
     55          1           0       12.707849   15.382109   12.353657
     56          1           0       15.113685   15.888570   11.522023
     57          1           0       15.642593   15.596796   13.181283
     58          1           0       13.610792   17.636937   12.302238
     59          1           0       16.552900   17.057922   14.325698
     60          1           0       17.031726   18.703108   14.197868
     61          1           0       15.381685   20.253372   13.694531
     62          1           0       13.954235   19.812401   12.877201
 ---------------------------------------------------------------------

 SCF Done:  E(RB3LYP) =  -1447.51341927     A.U. after    2 cycles

 Alpha  occ. eigenvalues --  -19.32897 -19.32887 -19.27817 -19.27085 -19.23195
 Alpha  occ. eigenvalues --  -19.22212 -14.50921 -14.50511 -14.49515 -14.47576
 Alpha  occ. eigenvalues --  -14.47110 -14.45769 -10.47147 -10.45726 -10.45260
 Alpha  occ. eigenvalues --  -10.40236 -10.39336 -10.35436 -10.35113 -10.34515
 Alpha  occ. eigenvalues --  -10.34478 -10.32654 -10.32069 -10.29582 -10.29043
 Alpha  occ. eigenvalues --  -10.27815 -10.27661 -10.26272 -10.24860  -1.24009
 Alpha  occ. eigenvalues --   -1.23811  -1.15520  -1.15257  -1.14835  -1.14607
 Alpha  occ. eigenvalues --   -1.14303  -1.04665  -1.04048  -1.03791  -1.03422
 Alpha  occ. eigenvalues --   -1.02286  -0.92014  -0.91207  -0.90110  -0.87339
 Alpha  occ. eigenvalues --   -0.84943  -0.83555  -0.81152  -0.77521  -0.77225
 Alpha  occ. eigenvalues --   -0.76715  -0.75069  -0.74353  -0.72752  -0.72163
 Alpha  occ. eigenvalues --   -0.70475  -0.69789  -0.68555  -0.67986  -0.66051
 Alpha  occ. eigenvalues --   -0.65351  -0.64929  -0.64650  -0.63750  -0.61877
 Alpha  occ. eigenvalues --   -0.61623  -0.61225  -0.61031  -0.59920  -0.59655
 Alpha  occ. eigenvalues --   -0.58774  -0.58251  -0.57619  -0.57179  -0.56673
 Alpha  occ. eigenvalues --   -0.56022  -0.55506  -0.54752  -0.54207  -0.54031
 Alpha  occ. eigenvalues --   -0.53157  -0.52818  -0.52394  -0.51740  -0.51544
 Alpha  occ. eigenvalues --   -0.50951  -0.50272  -0.49681  -0.49251  -0.48713
 Alpha  occ. eigenvalues --   -0.48207  -0.47726  -0.47063  -0.46279  -0.46036
 Alpha  occ. eigenvalues --   -0.45615  -0.45164  -0.44993  -0.44824  -0.44706
 Alpha  occ. eigenvalues --   -0.42206  -0.41462  -0.41406  -0.41238  -0.41075
 Alpha  occ. eigenvalues --   -0.40557  -0.39809  -0.38579  -0.38496  -0.36715
 Alpha  occ. eigenvalues --   -0.36579  -0.34488
 Alpha virt. eigenvalues --   -0.12996  -0.12560  -0.11842  -0.10744  -0.07893
 Alpha virt. eigenvalues --   -0.07549  -0.06000  -0.04899  -0.03773  -0.03640
 Alpha virt. eigenvalues --   -0.02385  -0.01750  -0.00343   0.00127   0.00719

 Mulliken charges:
               1
     1  N   -0.801592
     2  C   -0.051139
     3  C    0.609637
     4  O   -0.505842
     5  C   -0.305724
     6  C   -0.354218
     7  C    0.588408
     8  O   -0.498553
     9  O   -0.524527
    10  H    0.427560
    11  H    0.130037
    12  H    0.194806
    13  H    0.192925
    14  H    0.178189
    15  H    0.209708
    16  H    0.360632
    17  H    0.327575
    18  N   -0.576514
    19  C   -0.097596
    20  C    0.645666
    21  O   -0.503446
    22  C   -0.267160
    23  C   -0.081400
    24  C   -0.446829
    25  C   -0.459817
    26  H    0.355803
    27  H    0.144550
    28  H    0.154522
    29  H    0.172509
    30  H    0.138409
    31  H    0.151289
    32  H    0.156601
    33  H    0.155242
    34  H    0.164164
    35  H    0.150207
    36  H    0.117763
    37  N   -0.639859
    38  C   -0.017713
    39  C    0.594550
    40  O   -0.491629
    41  C   -0.285188
    42  C   -0.299472
    43  C   -0.165060
    44  N   -0.653846
    45  C    0.755532
    46  N   -0.756687
    47  N   -0.782096
    48  O   -0.564571
    49  H    0.420142
    50  H    0.344140
    51  H    0.227332
    52  H    0.195446
    53  H    0.175872
    54  H    0.178901
    55  H    0.170050
    56  H    0.185615
    57  H    0.183662
    58  H    0.438667
    59  H    0.404197
    60  H    0.364892
    61  H    0.358673
    62  H    0.406600
 Sum of Mulliken charges =   1.00000

 Dipole moment (field-independent basis, Debye):
    X=             63.9237    Y=             92.2857    Z=             65.6950  Tot=            130.0720
 Quadrupole moment (field-independent basis, Debye-Ang):
   XX=            725.0545   YY=           1613.1539   ZZ=            741.9655
   XY=           1217.7980   XZ=            879.4407   YZ=           1261.2739

 Normal termination of Gaussian 16 at Tue May 24 03:34:24 2022.
