 Gaussian 16, Revision C.01,
 Gaussian 16:  ES64L-G16RevC.01  3-Jul-2019

 ----------------------------------------------------------------------
 # B3LYP/6-31G* empiricaldispersion=gd3 guess=read geom=check nosymm in
 tegral(ultrafinegrid)
 ----------------------------------------------------------------------

 ------------------------------------------------------
 Candidate Structure: Conf:896 Charge calc in gas phase
 ------------------------------------------------------
 Structure from the checkpoint file:  "conf-896.chk"
 Charge =  1 Multiplicity = 1

                          Input orientation:
 ---------------------------------------------------------------------
 Center     Atomic      Atomic             Coordinates (Angstroms)
 Number     Number       Type             X           Y           Z
 ---------------------------------------------------------------------
      1          7           0       13.539621   17.344678   11.518653
      2          6           0       13.920536   16.687294   12.779020
      3          6           0       14.890197   17.623562   13.523818
      4          8           0       16.075320   17.671908   13.235342
      5          6           0       14.649229   15.366888   12.483094
      6          6           0       13.887239   14.449386   11.497426
      7          6           0       12.528251   14.070043   12.027062
      8          8           0       11.561107   14.824654   12.006693
      9          8           0       12.364009   12.870265   12.601967
     10          1           0       13.180562   12.343293   12.557206
     11          1           0       13.048613   16.473365   13.416466
     12          1           0       14.845843   14.835697   13.423350
     13          1           0       15.614328   15.612892   12.034168
     14          1           0       13.742886   14.990519   10.558529
     15          1           0       14.485984   13.557184   11.283236
     16          1           0       12.646152   16.980615   11.198629
     17          1           0       13.439061   18.349991   11.642952
     18          7           0       14.365185   18.426770   14.504015
     19          6           0       13.009496   18.497969   15.004044
     20          6           0       12.045589   19.124741   13.969240
     21          8           0       12.416455   19.927446   13.127283
     22          6           0       12.944890   19.356256   16.291769
     23          6           0       13.423759   18.673130   17.590008
     24          6           0       14.907813   18.277819   17.574497
     25          6           0       13.127105   19.595133   18.783024
     26          1           0       15.033862   19.094263   14.868385
     27          1           0       12.654941   17.487674   15.254345
     28          1           0       11.900886   19.662452   16.438141
     29          1           0       13.505475   20.285297   16.116820
     30          1           0       12.827662   17.754915   17.713535
     31          1           0       15.197601   17.853876   18.542005
     32          1           0       15.134932   17.537420   16.802532
     33          1           0       15.543848   19.155665   17.399332
     34          1           0       13.697872   20.528831   18.704360
     35          1           0       12.063529   19.855797   18.841023
     36          1           0       13.407597   19.113978   19.725932
     37          7           0       10.742616   18.702583   14.107715
     38          6           0        9.588043   19.479589   13.633794
     39          6           0        8.305279   18.719054   13.964412
     40          8           0        7.290142   18.727468   13.296350
     41          6           0        9.638585   19.915552   12.158601
     42          6           0       10.020065   18.854911   11.120563
     43          6           0        9.065090   17.669634   10.958409
     44          7           0        9.288220   16.658124   12.015266
     45          6           0        8.405624   15.718627   12.387210
     46          7           0        7.087287   15.980515   12.366109
     47          7           0        8.857469   14.527836   12.795224
     48          8           0        8.389173   18.065665   15.142969
     49          1           0        7.511646   17.685923   15.339130
     50          1           0       10.549836   18.140771   14.928185
     51          1           0        9.510467   20.403623   14.233042
     52          1           0       10.369444   20.721439   12.087679
     53          1           0        8.655218   20.334755   11.920480
     54          1           0       10.074881   19.357205   10.148283
     55          1           0       11.032769   18.491915   11.326725
     56          1           0        9.228950   17.183551    9.988565
     57          1           0        8.030256   18.009305   10.994291
     58          1           0       10.259899   16.378829   12.124357
     59          1           0        6.770892   16.943161   12.437551
     60          1           0        6.415658   15.245999   12.534335
     61          1           0        8.264214   13.881645   13.294813
     62          1           0        9.839439   14.288986   12.629987
 ---------------------------------------------------------------------

 SCF Done:  E(RB3LYP) =  -1447.48817302     A.U. after    2 cycles

 Alpha  occ. eigenvalues --  -19.33762 -19.33140 -19.28028 -19.27936 -19.22763
 Alpha  occ. eigenvalues --  -19.19459 -14.51448 -14.51098 -14.50826 -14.47741
 Alpha  occ. eigenvalues --  -14.44574 -14.40752 -10.47783 -10.46132 -10.45812
 Alpha  occ. eigenvalues --  -10.39613 -10.37019 -10.36469 -10.35077 -10.34074
 Alpha  occ. eigenvalues --  -10.31777 -10.31447 -10.30141 -10.29526 -10.28991
 Alpha  occ. eigenvalues --  -10.28958 -10.28024 -10.25238 -10.25153  -1.24686
 Alpha  occ. eigenvalues --   -1.23956  -1.16311  -1.15523  -1.15224  -1.14746
 Alpha  occ. eigenvalues --   -1.11651  -1.05346  -1.04395  -1.04224  -1.01429
 Alpha  occ. eigenvalues --   -0.98047  -0.91940  -0.89956  -0.89729  -0.87874
 Alpha  occ. eigenvalues --   -0.83740  -0.81728  -0.81310  -0.78293  -0.76251
 Alpha  occ. eigenvalues --   -0.75786  -0.75489  -0.74655  -0.73203  -0.72756
 Alpha  occ. eigenvalues --   -0.71008  -0.70034  -0.67850  -0.66838  -0.65763
 Alpha  occ. eigenvalues --   -0.65487  -0.64923  -0.64287  -0.62919  -0.62625
 Alpha  occ. eigenvalues --   -0.61596  -0.61161  -0.60913  -0.59696  -0.58694
 Alpha  occ. eigenvalues --   -0.58627  -0.58224  -0.57702  -0.56483  -0.55864
 Alpha  occ. eigenvalues --   -0.55200  -0.54707  -0.54446  -0.53809  -0.53592
 Alpha  occ. eigenvalues --   -0.53061  -0.52543  -0.52148  -0.50965  -0.50640
 Alpha  occ. eigenvalues --   -0.50084  -0.49832  -0.48804  -0.47644  -0.46825
 Alpha  occ. eigenvalues --   -0.46553  -0.46398  -0.46324  -0.46217  -0.45940
 Alpha  occ. eigenvalues --   -0.45593  -0.45351  -0.45095  -0.44850  -0.44237
 Alpha  occ. eigenvalues --   -0.42799  -0.41787  -0.41574  -0.41389  -0.41198
 Alpha  occ. eigenvalues --   -0.41090  -0.40020  -0.37483  -0.36203  -0.33558
 Alpha  occ. eigenvalues --   -0.33138  -0.32797
 Alpha virt. eigenvalues --   -0.13511  -0.12937  -0.12473  -0.09422  -0.07622
 Alpha virt. eigenvalues --   -0.07132  -0.05910  -0.05682  -0.03976  -0.02579
 Alpha virt. eigenvalues --   -0.01620  -0.00907  -0.00117   0.00951   0.01660

 Mulliken charges:
               1
     1  N   -0.750289
     2  C   -0.049265
     3  C    0.595977
     4  O   -0.485871
     5  C   -0.264091
     6  C   -0.389838
     7  C    0.621548
     8  O   -0.513242
     9  O   -0.546667
    10  H    0.440595
    11  H    0.113107
    12  H    0.143021
    13  H    0.218213
    14  H    0.218408
    15  H    0.167849
    16  H    0.306026
    17  H    0.349124
    18  N   -0.593503
    19  C   -0.055422
    20  C    0.614373
    21  O   -0.505540
    22  C   -0.296987
    23  C   -0.071180
    24  C   -0.457257
    25  C   -0.446203
    26  H    0.348868
    27  H    0.147959
    28  H    0.142231
    29  H    0.167593
    30  H    0.119804
    31  H    0.161141
    32  H    0.157455
    33  H    0.148738
    34  H    0.156275
    35  H    0.141821
    36  H    0.161366
    37  N   -0.637238
    38  C   -0.025685
    39  C    0.614028
    40  O   -0.490719
    41  C   -0.278732
    42  C   -0.298467
    43  C   -0.157317
    44  N   -0.626788
    45  C    0.775616
    46  N   -0.766213
    47  N   -0.778944
    48  O   -0.571176
    49  H    0.427527
    50  H    0.353091
    51  H    0.207346
    52  H    0.203674
    53  H    0.172737
    54  H    0.181248
    55  H    0.154569
    56  H    0.186361
    57  H    0.189541
    58  H    0.393981
    59  H    0.409996
    60  H    0.370757
    61  H    0.365063
    62  H    0.409605
 Sum of Mulliken charges =   1.00000

 Dipole moment (field-independent basis, Debye):
    X=             44.2717    Y=             74.9794    Z=             65.7864  Tot=            109.1317
 Quadrupole moment (field-independent basis, Debye-Ang):
   XX=            250.8172   YY=           1030.6848   ZZ=            753.5907
   XY=            673.1847   XZ=            618.0482   YZ=           1044.6521

 Normal termination of Gaussian 16 at Tue May 24 03:34:20 2022.
