 Gaussian 16, Revision C.01,
 Gaussian 16:  ES64L-G16RevC.01  3-Jul-2019

 ----------------------------------------------------------------------
 # B3LYP/6-31G* empiricaldispersion=gd3 guess=read geom=check nosymm in
 tegral(ultrafinegrid)
 ----------------------------------------------------------------------

 -----------------------------------------------------
 Candidate Structure: Conf:34 Charge calc in gas phase
 -----------------------------------------------------
 Structure from the checkpoint file:  "conf-34.chk"
 Charge =  1 Multiplicity = 1

                          Input orientation:
 ---------------------------------------------------------------------
 Center     Atomic      Atomic             Coordinates (Angstroms)
 Number     Number       Type             X           Y           Z
 ---------------------------------------------------------------------
      1          7           0       13.566857   17.073186   14.065331
      2          6           0       13.049379   18.422087   14.409057
      3          6           0       13.536538   19.448506   13.363307
      4          8           0       14.731244   19.682881   13.271527
      5          6           0       13.535676   18.885900   15.795803
      6          6           0       13.558692   17.784824   16.862408
      7          6           0       14.818191   16.949861   16.778391
      8          8           0       15.861334   17.269491   16.266746
      9          8           0       14.675683   15.728721   17.399247
     10          1           0       15.565320   15.321435   17.388530
     11          1           0       11.956487   18.347019   14.422943
     12          1           0       12.894425   19.709439   16.126480
     13          1           0       14.548085   19.284234   15.686643
     14          1           0       13.563425   18.233440   17.864909
     15          1           0       12.678245   17.133656   16.825169
     16          1           0       13.398196   16.936873   13.064467
     17          1           0       14.584268   17.100279   14.162113
     18          7           0       12.611878   20.101093   12.583111
     19          6           0       11.264295   19.657877   12.278779
     20          6           0       11.264939   18.210323   11.735449
     21          8           0       12.299347   17.603559   11.467978
     22          6           0       10.614882   20.625566   11.265438
     23          6           0       10.528184   22.094811   11.726230
     24          6           0        9.886157   22.938904   10.615582
     25          6           0        9.758936   22.242806   13.045727
     26          1           0       13.066864   20.653195   11.862682
     27          1           0       10.660402   19.663814   13.194904
     28          1           0        9.600062   20.271960   11.039206
     29          1           0       11.176058   20.563295   10.322672
     30          1           0       11.548864   22.466981   11.887611
     31          1           0        9.864568   23.997375   10.895026
     32          1           0       10.438547   22.851512    9.672882
     33          1           0        8.851730   22.621861   10.430449
     34          1           0        9.652866   23.299441   13.312186
     35          1           0        8.748525   21.820247   12.961702
     36          1           0       10.271432   21.748677   13.879103
     37          7           0       10.041186   17.620770   11.624890
     38          6           0        9.923331   16.315321   10.968885
     39          6           0        8.493407   16.081716   10.483520
     40          8           0        7.992263   14.991083   10.356044
     41          6           0       10.406783   15.137238   11.833543
     42          6           0        9.634814   14.940658   13.150326
     43          6           0       10.185736   15.712150   14.364727
     44          7           0       11.479190   15.227223   14.874244
     45          6           0       11.599684   14.158729   15.657363
     46          7           0       10.552987   13.338183   15.884466
     47          7           0       12.772654   13.881858   16.250850
     48          8           0        7.856922   17.239945   10.185853
     49          1           0        6.970689   17.005120    9.848417
     50          1           0        9.214123   18.203003   11.651557
     51          1           0       10.551710   16.335536   10.066276
     52          1           0       11.474424   15.275727   12.024374
     53          1           0       10.301717   14.240001   11.218062
     54          1           0        8.584837   15.228545   13.021157
     55          1           0        9.611432   13.866196   13.371397
     56          1           0        9.461983   15.689627   15.188954
     57          1           0       10.332827   16.759225   14.098289
     58          1           0       12.339290   15.783834   14.650018
     59          1           0        9.746660   13.334107   15.279596
     60          1           0       10.617777   12.593797   16.563021
     61          1           0       12.876571   13.025775   16.776445
     62          1           0       13.447361   14.617151   16.462787
 ---------------------------------------------------------------------

 SCF Done:  E(RB3LYP) =  -1447.50016976     A.U. after    1 cycles

 Alpha  occ. eigenvalues --  -19.31790 -19.31167 -19.25301 -19.25169 -19.23635
 Alpha  occ. eigenvalues --  -19.20247 -14.52255 -14.50729 -14.50517 -14.47980
 Alpha  occ. eigenvalues --  -14.45123 -14.43870 -10.47829 -10.43452 -10.43397
 Alpha  occ. eigenvalues --  -10.40235 -10.37623 -10.35997 -10.35461 -10.34444
 Alpha  occ. eigenvalues --  -10.33158 -10.31535 -10.31218 -10.30002 -10.29374
 Alpha  occ. eigenvalues --  -10.29009 -10.28044 -10.25933 -10.25265  -1.21970
 Alpha  occ. eigenvalues --   -1.21899  -1.16204  -1.15645  -1.13072  -1.12994
 Alpha  occ. eigenvalues --   -1.12420  -1.05352  -1.04475  -1.04362  -1.02014
 Alpha  occ. eigenvalues --   -1.00177  -0.92232  -0.90357  -0.89880  -0.87738
 Alpha  occ. eigenvalues --   -0.84049  -0.82460  -0.81369  -0.78333  -0.76802
 Alpha  occ. eigenvalues --   -0.75471  -0.75259  -0.74736  -0.73460  -0.70927
 Alpha  occ. eigenvalues --   -0.70070  -0.69444  -0.68236  -0.66866  -0.65722
 Alpha  occ. eigenvalues --   -0.65457  -0.64701  -0.64580  -0.62358  -0.61580
 Alpha  occ. eigenvalues --   -0.60754  -0.60422  -0.59863  -0.59544  -0.59406
 Alpha  occ. eigenvalues --   -0.58699  -0.58422  -0.57357  -0.56503  -0.55571
 Alpha  occ. eigenvalues --   -0.55196  -0.54413  -0.54190  -0.53855  -0.53505
 Alpha  occ. eigenvalues --   -0.52660  -0.52120  -0.51864  -0.51537  -0.50735
 Alpha  occ. eigenvalues --   -0.50631  -0.49838  -0.49491  -0.48502  -0.47650
 Alpha  occ. eigenvalues --   -0.47392  -0.46978  -0.46855  -0.46490  -0.45821
 Alpha  occ. eigenvalues --   -0.45170  -0.44661  -0.44445  -0.43499  -0.43142
 Alpha  occ. eigenvalues --   -0.43004  -0.42034  -0.41512  -0.41361  -0.40110
 Alpha  occ. eigenvalues --   -0.39067  -0.38830  -0.38615  -0.37497  -0.37209
 Alpha  occ. eigenvalues --   -0.34793  -0.33374
 Alpha virt. eigenvalues --   -0.12117  -0.10641  -0.10381  -0.09931  -0.08204
 Alpha virt. eigenvalues --   -0.07536  -0.05316  -0.04968  -0.03943  -0.03634
 Alpha virt. eigenvalues --   -0.01206  -0.01122  -0.00687   0.00101   0.00507

 Mulliken charges:
               1
     1  N   -0.818923
     2  C   -0.041342
     3  C    0.598335
     4  O   -0.490238
     5  C   -0.300052
     6  C   -0.353463
     7  C    0.591606
     8  O   -0.424185
     9  O   -0.601960
    10  H    0.427892
    11  H    0.121241
    12  H    0.161854
    13  H    0.222079
    14  H    0.210142
    15  H    0.151704
    16  H    0.373944
    17  H    0.353960
    18  N   -0.589636
    19  C   -0.066784
    20  C    0.615748
    21  O   -0.525529
    22  C   -0.304753
    23  C   -0.071671
    24  C   -0.447590
    25  C   -0.454701
    26  H    0.347188
    27  H    0.164755
    28  H    0.143104
    29  H    0.163818
    30  H    0.145586
    31  H    0.164345
    32  H    0.153699
    33  H    0.145867
    34  H    0.169212
    35  H    0.137752
    36  H    0.144102
    37  N   -0.628639
    38  C   -0.034055
    39  C    0.578942
    40  O   -0.441004
    41  C   -0.276563
    42  C   -0.284596
    43  C   -0.188496
    44  N   -0.626604
    45  C    0.800005
    46  N   -0.764307
    47  N   -0.793016
    48  O   -0.577267
    49  H    0.434435
    50  H    0.360861
    51  H    0.218698
    52  H    0.172550
    53  H    0.188175
    54  H    0.171520
    55  H    0.144688
    56  H    0.176620
    57  H    0.187932
    58  H    0.422972
    59  H    0.384871
    60  H    0.376240
    61  H    0.363864
    62  H    0.415065
 Sum of Mulliken charges =   1.00000

 Dipole moment (field-independent basis, Debye):
    X=             49.6179    Y=             75.7084    Z=             71.3689  Tot=            115.2701
 Quadrupole moment (field-independent basis, Debye-Ang):
   XX=            346.3772   YY=           1070.9994   ZZ=            924.9001
   XY=            756.7290   XZ=            766.2240   YZ=           1092.7428

 Normal termination of Gaussian 16 at Tue May 24 03:33:06 2022.
