 Gaussian 16, Revision C.01,
 Gaussian 16:  ES64L-G16RevC.01  3-Jul-2019

 ----------------------------------------------------------------------
 # B3LYP/6-31G* empiricaldispersion=gd3 guess=read geom=check nosymm in
 tegral(ultrafinegrid)
 ----------------------------------------------------------------------

 ------------------------------------------------------
 Candidate Structure: Conf:197 Charge calc in gas phase
 ------------------------------------------------------
 Structure from the checkpoint file:  "conf-197.chk"
 Charge =  1 Multiplicity = 1

                          Input orientation:
 ---------------------------------------------------------------------
 Center     Atomic      Atomic             Coordinates (Angstroms)
 Number     Number       Type             X           Y           Z
 ---------------------------------------------------------------------
      1          7           0       12.083178   20.217018   12.219641
      2          6           0       12.810242   19.623513   13.354129
      3          6           0       12.292402   20.194042   14.687680
      4          8           0       12.664574   21.290002   15.083234
      5          6           0       14.310660   19.892090   13.195581
      6          6           0       15.176777   19.003116   14.098175
      7          6           0       15.144029   17.552114   13.653001
      8          8           0       15.147041   17.205800   12.484889
      9          8           0       15.107954   16.594643   14.605285
     10          1           0       15.144798   16.986101   15.494947
     11          1           0       12.644507   18.541121   13.313930
     12          1           0       14.502499   20.941011   13.438749
     13          1           0       14.585785   19.718797   12.151397
     14          1           0       16.224539   19.325996   14.041945
     15          1           0       14.871598   19.101619   15.147378
     16          1           0       11.083316   20.224937   12.428586
     17          1           0       12.357980   21.196766   12.138430
     18          7           0       11.368077   19.463332   15.399922
     19          6           0       10.736302   18.203747   15.066354
     20          6           0        9.709017   18.346126   13.912237
     21          8           0        9.389587   19.425872   13.430307
     22          6           0       10.107068   17.585895   16.332397
     23          6           0       11.106355   17.305258   17.472736
     24          6           0       10.359674   16.727760   18.683657
     25          6           0       12.238416   16.365604   17.032009
     26          1           0       10.943935   20.001805   16.148071
     27          1           0       11.506445   17.510992   14.705064
     28          1           0        9.607499   16.646470   16.061346
     29          1           0        9.314111   18.257120   16.689291
     30          1           0       11.558663   18.259553   17.773195
     31          1           0        9.561546   17.399702   19.018461
     32          1           0        9.903343   15.759902   18.439252
     33          1           0       11.041449   16.571612   19.526308
     34          1           0       12.852866   16.799743   16.233188
     35          1           0       12.901250   16.139771   17.874317
     36          1           0       11.837391   15.411432   16.663951
     37          7           0        9.254970   17.158011   13.420207
     38          6           0        8.438907   17.042546   12.213720
     39          6           0        8.146840   15.567613   12.013314
     40          8           0        8.917675   14.672283   12.333792
     41          6           0        9.100449   17.585050   10.905299
     42          6           0       10.353815   16.838183   10.408158
     43          6           0       11.561146   17.104418   11.317886
     44          7           0       12.717923   16.222443   11.115236
     45          6           0       12.898259   15.079683   11.787623
     46          7           0       11.857142   14.425431   12.322770
     47          7           0       14.149724   14.600185   11.915577
     48          8           0        6.996940   15.357481   11.379359
     49          1           0        6.900309   14.398175   11.216571
     50          1           0        9.567784   16.290095   13.836035
     51          1           0        7.500312   17.585898   12.356028
     52          1           0        9.328125   18.639852   11.081164
     53          1           0        8.328179   17.549830   10.129697
     54          1           0       10.157784   15.762196   10.327372
     55          1           0       10.585506   17.176032    9.392174
     56          1           0       11.265615   16.997699   12.359347
     57          1           0       11.903932   18.135728   11.187152
     58          1           0       13.564449   16.648882   10.758719
     59          1           0       10.881979   14.633529   12.113478
     60          1           0       12.019971   13.614642   12.901954
     61          1           0       14.297788   13.702765   12.355592
     62          1           0       14.881200   15.302762   12.046044
 ---------------------------------------------------------------------

 SCF Done:  E(RB3LYP) =  -1447.50178402     A.U. after    1 cycles

 Alpha  occ. eigenvalues --  -19.33381 -19.32734 -19.28390 -19.27033 -19.23480
 Alpha  occ. eigenvalues --  -19.20443 -14.51421 -14.50988 -14.50066 -14.48323
 Alpha  occ. eigenvalues --  -14.45717 -14.41456 -10.47325 -10.46195 -10.45188
 Alpha  occ. eigenvalues --  -10.40412 -10.37793 -10.36555 -10.35117 -10.34349
 Alpha  occ. eigenvalues --  -10.32398 -10.31937 -10.30989 -10.30903 -10.30154
 Alpha  occ. eigenvalues --  -10.29342 -10.29069 -10.28192 -10.26432  -1.24683
 Alpha  occ. eigenvalues --   -1.23228  -1.16007  -1.15767  -1.15332  -1.14725
 Alpha  occ. eigenvalues --   -1.12549  -1.05264  -1.04832  -1.03849  -1.02417
 Alpha  occ. eigenvalues --   -0.98718  -0.92691  -0.91320  -0.90311  -0.88288
 Alpha  occ. eigenvalues --   -0.84801  -0.81608  -0.80991  -0.78579  -0.78025
 Alpha  occ. eigenvalues --   -0.76670  -0.75445  -0.74686  -0.73415  -0.72972
 Alpha  occ. eigenvalues --   -0.72568  -0.69778  -0.69043  -0.67406  -0.66557
 Alpha  occ. eigenvalues --   -0.65573  -0.64881  -0.64513  -0.63089  -0.62682
 Alpha  occ. eigenvalues --   -0.61497  -0.61297  -0.60241  -0.59698  -0.59322
 Alpha  occ. eigenvalues --   -0.58929  -0.58029  -0.57629  -0.57112  -0.56737
 Alpha  occ. eigenvalues --   -0.56559  -0.55962  -0.54691  -0.54332  -0.54062
 Alpha  occ. eigenvalues --   -0.53625  -0.52777  -0.52702  -0.51741  -0.50979
 Alpha  occ. eigenvalues --   -0.50480  -0.50158  -0.49447  -0.49132  -0.48462
 Alpha  occ. eigenvalues --   -0.48002  -0.47725  -0.47326  -0.46782  -0.46513
 Alpha  occ. eigenvalues --   -0.46205  -0.45556  -0.45212  -0.44830  -0.44246
 Alpha  occ. eigenvalues --   -0.43295  -0.42850  -0.42719  -0.42666  -0.41902
 Alpha  occ. eigenvalues --   -0.40684  -0.39994  -0.37624  -0.37063  -0.36389
 Alpha  occ. eigenvalues --   -0.34811  -0.32492
 Alpha virt. eigenvalues --   -0.13309  -0.12429  -0.11994  -0.10131  -0.08203
 Alpha virt. eigenvalues --   -0.07237  -0.06502  -0.04904  -0.04143  -0.02770
 Alpha virt. eigenvalues --   -0.02499  -0.01376  -0.00865  -0.00481   0.01074

 Mulliken charges:
               1
     1  N   -0.754664
     2  C   -0.060574
     3  C    0.594990
     4  O   -0.498885
     5  C   -0.275043
     6  C   -0.392505
     7  C    0.616743
     8  O   -0.492105
     9  O   -0.563273
    10  H    0.435539
    11  H    0.111148
    12  H    0.194590
    13  H    0.176243
    14  H    0.218734
    15  H    0.168768
    16  H    0.352472
    17  H    0.327002
    18  N   -0.597593
    19  C   -0.073613
    20  C    0.624844
    21  O   -0.510702
    22  C   -0.295173
    23  C   -0.067091
    24  C   -0.448064
    25  C   -0.459861
    26  H    0.345875
    27  H    0.152679
    28  H    0.140426
    29  H    0.167995
    30  H    0.147275
    31  H    0.159973
    32  H    0.146309
    33  H    0.162909
    34  H    0.114800
    35  H    0.166700
    36  H    0.138077
    37  N   -0.632063
    38  C    0.008993
    39  C    0.590439
    40  O   -0.505060
    41  C   -0.312240
    42  C   -0.287835
    43  C   -0.204993
    44  N   -0.572622
    45  C    0.774545
    46  N   -0.793919
    47  N   -0.761430
    48  O   -0.533684
    49  H    0.437145
    50  H    0.343237
    51  H    0.215339
    52  H    0.208265
    53  H    0.185082
    54  H    0.146326
    55  H    0.181175
    56  H    0.153265
    57  H    0.242966
    58  H    0.381935
    59  H    0.427497
    60  H    0.368883
    61  H    0.361715
    62  H    0.402092
 Sum of Mulliken charges =   1.00000

 Dipole moment (field-independent basis, Debye):
    X=             56.8210    Y=             74.3031    Z=             63.5194  Tot=            113.0676
 Quadrupole moment (field-independent basis, Debye-Ang):
   XX=            544.0132   YY=            980.0421   ZZ=            698.3128
   XY=            887.8670   XZ=            762.4851   YZ=            985.3797

 Normal termination of Gaussian 16 at Tue May 24 03:34:05 2022.
